version 2
run General-0-20150511-12:33:38-10248
attr configname General
attr datetime 20150511-12:33:38
attr experiment General
attr inifile omnetpp.ini
attr iterationvars ""
attr iterationvars2 $repetition=0
attr measurement ""
attr network AllNodes
attr processid 10248
attr repetition 0
attr replication #0
attr resultdir results
attr runnumber 0
attr seedset 0

vector 3  AllNodes.SensorNode[0].Processor  Voltage  ETV
vector 4  AllNodes.SensorNode[0].Processor  residualRelative  ETV
vector 5  AllNodes.SensorNode[0].Processor  residualAbs  ETV
vector 9  AllNodes.TNode[0].Processor  Voltage  ETV
vector 10  AllNodes.TNode[0].Processor  residualRelative  ETV
vector 11  AllNodes.TNode[0].Processor  residualAbs  ETV
vector 15  AllNodes.PNode[0].Processor  Voltage  ETV
vector 16  AllNodes.PNode[0].Processor  residualRelative  ETV
vector 17  AllNodes.PNode[0].Processor  residualAbs  ETV
vector 21  AllNodes.HNode[0].Processor  Voltage  ETV
vector 22  AllNodes.HNode[0].Processor  residualRelative  ETV
vector 23  AllNodes.HNode[0].Processor  residualAbs  ETV
vector 27  AllNodes.LNode[0].Processor  Voltage  ETV
vector 28  AllNodes.LNode[0].Processor  residualRelative  ETV
vector 29  AllNodes.LNode[0].Processor  residualAbs  ETV
vector 33  AllNodes.TPNode[0].Processor  Voltage  ETV
vector 34  AllNodes.TPNode[0].Processor  residualRelative  ETV
vector 35  AllNodes.TPNode[0].Processor  residualAbs  ETV
vector 39  AllNodes.THNode[0].Processor  Voltage  ETV
vector 40  AllNodes.THNode[0].Processor  residualRelative  ETV
vector 41  AllNodes.THNode[0].Processor  residualAbs  ETV
vector 45  AllNodes.TLNode[0].Processor  Voltage  ETV
vector 46  AllNodes.TLNode[0].Processor  residualRelative  ETV
vector 47  AllNodes.TLNode[0].Processor  residualAbs  ETV
vector 51  AllNodes.PHNode[0].Processor  Voltage  ETV
vector 52  AllNodes.PHNode[0].Processor  residualRelative  ETV
vector 53  AllNodes.PHNode[0].Processor  residualAbs  ETV
vector 57  AllNodes.PLNode[0].Processor  Voltage  ETV
vector 58  AllNodes.PLNode[0].Processor  residualRelative  ETV
vector 59  AllNodes.PLNode[0].Processor  residualAbs  ETV
vector 63  AllNodes.HLNode[0].Processor  Voltage  ETV
vector 64  AllNodes.HLNode[0].Processor  residualRelative  ETV
vector 65  AllNodes.HLNode[0].Processor  residualAbs  ETV
vector 69  AllNodes.PHLNode[0].Processor  Voltage  ETV
vector 70  AllNodes.PHLNode[0].Processor  residualRelative  ETV
vector 71  AllNodes.PHLNode[0].Processor  residualAbs  ETV
vector 75  AllNodes.THLNode[0].Processor  Voltage  ETV
vector 76  AllNodes.THLNode[0].Processor  residualRelative  ETV
vector 77  AllNodes.THLNode[0].Processor  residualAbs  ETV
vector 81  AllNodes.TPLNode[0].Processor  Voltage  ETV
vector 82  AllNodes.TPLNode[0].Processor  residualRelative  ETV
vector 83  AllNodes.TPLNode[0].Processor  residualAbs  ETV
vector 87  AllNodes.TPHNode[0].Processor  Voltage  ETV
vector 88  AllNodes.TPHNode[0].Processor  residualRelative  ETV
vector 89  AllNodes.TPHNode[0].Processor  residualAbs  ETV
vector 93  AllNodes.TPHLNode[0].Processor  Voltage  ETV
vector 94  AllNodes.TPHLNode[0].Processor  residualRelative  ETV
vector 95  AllNodes.TPHLNode[0].Processor  residualAbs  ETV
3	0	0	3
3	1473	2500	3
3	1473	2500	3
3	2833	5000	3
3	2833	5000	3
3	2833	5000	3
3	5520	10000	3
3	5520	10000	3
3	5520	10000	3
3	7072	12500	3
3	7072	12500	3
3	7344	13000	3
3	7344	13000	3
3	8416	15000	3
3	8416	15000	3
3	8416	15000	3
3	8720	15500	3
3	8720	15500	3
3	11151	20000	3
3	11151	20000	3
3	11151	20000	3
3	14015	25000	3
3	14015	25000	3
3	14015	25000	3
3	14287	25500	3
3	14287	25500	3
3	14591	26000	3
3	14591	26000	3
3	15919	28500	3
3	15919	28500	3
3	16750	30000	3
3	16750	30000	3
3	16750	30000	3
3	19646	35000	3
3	19646	35000	3
3	19646	35000	3
3	21518	38500	3
3	21518	38500	3
3	21790	39000	3
3	21790	39000	3
3	22365	40000	3
3	22365	40000	3
3	22365	40000	3
3	23373	41500	3
3	23373	41500	3
3	25245	45000	3
3	25245	45000	3
3	25245	45000	3
3	27964	50000	3
3	27964	50000	3
3	27964	50000	3
3	28972	51500	3
3	28972	51500	3
3	29244	52000	3
3	29244	52000	3
3	30604	54500	3
3	30604	54500	3
3	30876	55000	3
3	30876	55000	3
3	30876	55000	3
3	33563	60000	3
3	33563	60000	3
3	33563	60000	3
3	36171	64500	3
3	36171	64500	3
3	36475	65000	3
3	36475	65000	3
3	36475	65000	3
3	36491	65000	3
3	36491	65000	3
3	37819	67500	3
3	37819	67500	3
3	39194	70000	3
3	39194	70000	3
3	39194	70000	3
3	42058	75000	3
3	42058	75000	3
3	42058	75000	3
3	43418	77500	3
3	43418	77500	3
3	43690	78000	3
3	43690	78000	3
3	44809	80000	3
3	44809	80000	3
3	44809	80000	3
3	45273	80500	3
3	45273	80500	3
3	47689	85000	3
3	47689	85000	3
3	47689	85000	3
3	50376	90000	3
3	50376	90000	3
3	50376	90000	3
3	50872	90500	3
3	50872	90500	3
3	51144	91000	3
3	51144	91000	3
3	52504	93500	3
3	52504	93500	3
3	53320	95000	3
3	53320	95000	3
3	53320	95000	3
3	56007	100000	3
3	56007	100000	3
3	56007	100000	3
3	58071	103500	3
3	58071	103500	3
3	58375	104000	3
3	58375	104000	3
3	58903	105000	3
3	58903	105000	3
3	58903	105000	3
3	59719	106500	3
3	59719	106500	3
3	61638	110000	3
3	61638	110000	3
3	61638	110000	3
3	64502	115000	3
3	64502	115000	3
3	64502	115000	3
3	65318	116500	3
3	65318	116500	3
3	65590	117000	3
3	65590	117000	3
3	66950	119500	3
3	66950	119500	3
3	67237	120000	3
3	67237	120000	3
3	67237	120000	3
3	70133	125000	3
3	70133	125000	3
3	70133	125000	3
3	72549	129500	3
3	72549	129500	3
3	72836	130000	3
3	72836	130000	3
3	72836	130000	3
3	72852	130000	3
3	72852	130000	3
3	74404	132500	3
3	74404	132500	3
3	75732	135000	3
3	75732	135000	3
3	75732	135000	3
3	78451	140000	3
3	78451	140000	3
3	78451	140000	3
3	79971	142500	3
3	79971	142500	3
3	80275	143000	3
3	80275	143000	3
3	81344	145000	3
3	81344	145000	3
3	81344	145000	3
3	81607	145500	3
3	81607	145500	3
3	83961	150000	3
3	83961	150000	3
3	83961	150000	3
3	86748	155000	3
3	86748	155000	3
3	86748	155000	3
3	87011	155500	3
3	87011	155500	3
3	87274	156000	3
3	87274	156000	3
3	88591	158500	3
3	88591	158500	3
3	89395	160000	3
3	89395	160000	3
3	89395	160000	3
3	92151	165000	3
3	92151	165000	3
3	92151	165000	3
3	93995	168500	3
3	93995	168500	3
3	94258	169000	3
3	94258	169000	3
3	94814	170000	3
3	94814	170000	3
3	94814	170000	3
3	95744	171500	3
3	95744	171500	3
3	97321	175000	3
3	97321	175000	3
3	97321	175000	3
3	99583	180000	3
3	99583	180000	3
3	99583	180000	3
3	100365	181500	3
3	100365	181500	3
3	100619	182000	3
3	100619	182000	3
3	101737	184500	3
3	101737	184500	3
3	101991	185000	3
3	101991	185000	3
3	101991	185000	3
3	104253	190000	3
3	104253	190000	3
3	104253	190000	3
3	106385	194500	3
3	106385	194500	3
3	106612	195000	3
3	106612	195000	3
3	106612	195000	3
3	106623	195000	3
3	106623	195000	3
3	107768	197500	3
3	107768	197500	3
3	108923	200000	3
3	108923	200000	3
3	108923	200000	3
3	111271	205000	3
3	111271	205000	3
3	111271	205000	3
3	112416	207500	3
3	112416	207500	3
3	112643	208000	3
3	112643	208000	3
3	113555	210000	3
3	113555	210000	3
3	113555	210000	3
3	113845	210500	3
3	113845	210500	3
3	115425	215000	3
3	115425	215000	3
3	115425	215000	3
3	117177	220000	3
3	117177	220000	3
3	117177	220000	3
3	117374	220500	3
3	117374	220500	3
3	117568	221000	3
3	117568	221000	3
3	118434	223500	3
3	118434	223500	3
3	118964	225000	3
3	118964	225000	3
3	118964	225000	3
3	120737	230000	3
3	120737	230000	3
3	120737	230000	3
3	121984	233500	3
3	121984	233500	3
3	122157	234000	3
3	122157	234000	3
3	122519	235000	3
3	122519	235000	3
3	122519	235000	3
3	123049	236500	3
3	123049	236500	3
3	124276	240000	3
3	124276	240000	3
3	124276	240000	3
3	126069	245000	3
3	126069	245000	3
3	126069	245000	3
3	126599	246500	3
3	126599	246500	3
3	126772	247000	3
3	126772	247000	3
3	127659	249500	3
3	127659	249500	3
3	127836	250000	3
3	127836	250000	3
3	127836	250000	3
3	129608	255000	3
3	129608	255000	3
3	129608	255000	3
3	131188	259500	3
3	131188	259500	3
3	131386	260000	3
3	131386	260000	3
3	131386	260000	3
3	131391	260000	3
3	131391	260000	3
3	132281	262500	3
3	132281	262500	3
3	133168	265000	3
3	133168	265000	3
3	133168	265000	3
3	134920	270000	3
3	134920	270000	3
3	134920	270000	3
3	135831	272500	3
3	135831	272500	3
3	136004	273000	3
3	136004	273000	3
3	136619	275000	3
3	136619	275000	3
3	136619	275000	3
3	136756	275500	3
3	136756	275500	3
3	138032	280000	3
3	138032	280000	3
3	138032	280000	3
3	139444	285000	3
3	139444	285000	3
3	139444	285000	3
3	139598	285500	3
3	139598	285500	3
3	139735	286000	3
3	139735	286000	3
3	140450	288500	3
3	140450	288500	3
3	140876	290000	3
3	140876	290000	3
3	140876	290000	3
3	142288	295000	3
3	142288	295000	3
3	142288	295000	3
3	143275	298500	3
3	143275	298500	3
3	143429	299000	3
3	143429	299000	3
3	143702	300000	3
3	143702	300000	3
3	143702	300000	3
3	144128	301500	3
3	144128	301500	3
3	145132	305000	3
3	145132	305000	3
3	145132	305000	3
3	146544	310000	3
3	146544	310000	3
3	146544	310000	3
3	146970	311500	3
3	146970	311500	3
3	147107	312000	3
3	147107	312000	3
3	147822	314500	3
3	147822	314500	3
3	147959	315000	3
3	147959	315000	3
3	147959	315000	3
3	149388	320000	3
3	149388	320000	3
3	149388	320000	3
3	150664	324500	3
3	150664	324500	3
3	150801	325000	3
3	150801	325000	3
3	150801	325000	3
3	150802	325000	3
3	150802	325000	3
3	151517	327500	3
3	151517	327500	3
3	152215	330000	3
3	152215	330000	3
3	152215	330000	3
3	153644	335000	3
3	153644	335000	3
3	153644	335000	3
3	154342	337500	3
3	154342	337500	3
3	154496	338000	3
3	154496	338000	3
3	155058	340000	3
3	155058	340000	3
3	155058	340000	3
3	155195	340500	3
3	155195	340500	3
3	156471	345000	3
3	156471	345000	3
3	156471	345000	3
3	157900	350000	3
3	157900	350000	3
3	157900	350000	3
3	158037	350500	3
3	158037	350500	3
3	158174	351000	3
3	158174	351000	3
3	158889	353500	3
3	158889	353500	3
3	159315	355000	3
3	159315	355000	3
3	159315	355000	3
3	160727	360000	3
3	160727	360000	3
3	160727	360000	3
3	161731	363500	3
3	161731	363500	3
3	161868	364000	3
3	161868	364000	3
3	162158	365000	3
3	162158	365000	3
3	162158	365000	3
3	162584	366500	3
3	162584	366500	3
3	163571	370000	3
3	163571	370000	3
3	163571	370000	3
3	164983	375000	3
3	164983	375000	3
3	164983	375000	3
3	165409	376500	3
3	165409	376500	3
3	165563	377000	3
3	165563	377000	3
4	0	0	1
4	1473	2500	0.98402777777778
4	1473	2500	0.98401388888889
4	2833	5000	0.98311833333333
4	2833	5000	0.98311833333333
4	2833	5000	0.98309722222222
4	5520	10000	0.98130611111111
4	5520	10000	0.98130611111111
4	5520	10000	0.98127777777778
4	7072	12500	0.980375
4	7072	12500	0.98035185185185
4	7344	13000	0.9660462962963
4	7344	13000	0.96602777777778
4	8416	15000	0.95363333333333
4	8416	15000	0.95363333333333
4	8416	15000	0.95323148148148
4	8720	15500	0.95003703703704
4	8720	15500	0.95002314814815
4	11151	20000	0.94840537037037
4	11151	20000	0.94840537037037
4	11151	20000	0.94838425925926
4	14015	25000	0.94659314814815
4	14015	25000	0.94659314814815
4	14015	25000	0.94656481481481
4	14287	25500	0.94638425925926
4	14287	25500	0.94636111111111
4	14591	26000	0.93205555555556
4	14591	26000	0.93203703703704
4	15919	28500	0.91606481481481
4	15919	28500	0.91605092592593
4	16750	30000	0.91553092592593
4	16750	30000	0.91553092592593
4	16750	30000	0.91549537037037
4	19646	35000	0.91369703703704
4	19646	35000	0.91369703703704
4	19646	35000	0.91367592592593
4	21518	38500	0.91241203703704
4	21518	38500	0.91238888888889
4	21790	39000	0.89808333333333
4	21790	39000	0.89806481481481
4	22365	40000	0.89193148148148
4	22365	40000	0.89193148148148
4	22365	40000	0.89165740740741
4	23373	41500	0.88207407407407
4	23373	41500	0.88206018518519
4	25245	45000	0.88081796296296
4	25245	45000	0.88081796296296
4	25245	45000	0.88078240740741
4	27964	50000	0.87898407407407
4	27964	50000	0.87898407407407
4	27964	50000	0.87896296296296
4	28972	51500	0.8784212962963
4	28972	51500	0.87839814814815
4	29244	52000	0.86409259259259
4	29244	52000	0.86407407407407
4	30604	54500	0.84810185185185
4	30604	54500	0.84808796296296
4	30876	55000	0.84792185185185
4	30876	55000	0.84792185185185
4	30876	55000	0.84789351851852
4	33563	60000	0.84610962962963
4	33563	60000	0.84610962962963
4	33563	60000	0.84607407407407
4	36171	64500	0.84444907407407
4	36171	64500	0.84442592592593
4	36475	65000	0.83069259259259
4	36475	65000	0.83069259259259
4	36475	65000	0.83009722222222
4	36491	65000	0.83009722222222
4	36491	65000	0.8300787037037
4	37819	67500	0.81410648148148
4	37819	67500	0.81409259259259
4	39194	70000	0.81320425925926
4	39194	70000	0.81320425925926
4	39194	70000	0.81317592592593
4	42058	75000	0.81139203703704
4	42058	75000	0.81139203703704
4	42058	75000	0.81135648148148
4	43418	77500	0.8104537037037
4	43418	77500	0.81043055555556
4	43690	78000	0.796125
4	43690	78000	0.79610648148148
4	44809	80000	0.78345648148148
4	44809	80000	0.78345648148148
4	44809	80000	0.78331018518519
4	45273	80500	0.78011574074074
4	45273	80500	0.78010185185185
4	47689	85000	0.7784912962963
4	47689	85000	0.7784912962963
4	47689	85000	0.77846296296296
4	50376	90000	0.77667907407407
4	50376	90000	0.77667907407407
4	50376	90000	0.77664351851852
4	50872	90500	0.77646296296296
4	50872	90500	0.77643981481481
4	51144	91000	0.76213425925926
4	51144	91000	0.76211574074074
4	52504	93500	0.74614351851852
4	52504	93500	0.74612962962963
4	53320	95000	0.74559518518519
4	53320	95000	0.74559518518519
4	53320	95000	0.74557407407407
4	56007	100000	0.74378296296296
4	56007	100000	0.74378296296296
4	56007	100000	0.74375462962963
4	58071	103500	0.74249074074074
4	58071	103500	0.74246759259259
4	58375	104000	0.72816203703704
4	58375	104000	0.72814351851852
4	58903	105000	0.72213796296296
4	58903	105000	0.72213796296296
4	58903	105000	0.72173611111111
4	59719	106500	0.71215277777778
4	59719	106500	0.71213888888889
4	61638	110000	0.71088222222222
4	61638	110000	0.71088222222222
4	61638	110000	0.71086111111111
4	64502	115000	0.70907
4	64502	115000	0.70907
4	64502	115000	0.70904166666667
4	65318	116500	0.7085
4	65318	116500	0.70847685185185
4	65590	117000	0.6941712962963
4	65590	117000	0.69415277777778
4	66950	119500	0.67818055555556
4	66950	119500	0.67816666666667
4	67237	120000	0.67800777777778
4	67237	120000	0.67800777777778
4	67237	120000	0.67797222222222
4	70133	125000	0.67617388888889
4	70133	125000	0.67617388888889
4	70133	125000	0.67615277777778
4	72549	129500	0.67452777777778
4	72549	129500	0.67450462962963
4	72836	130000	0.66134351851852
4	72836	130000	0.66134351851852
4	72836	130000	0.66017592592593
4	72852	130000	0.66017592592593
4	72852	130000	0.66015740740741
4	74404	132500	0.64418518518519
4	74404	132500	0.6441712962963
4	75732	135000	0.64329018518519
4	75732	135000	0.64329018518519
4	75732	135000	0.64325462962963
4	78451	140000	0.6414562962963
4	78451	140000	0.6414562962963
4	78451	140000	0.64143518518519
4	79971	142500	0.64053240740741
4	79971	142500	0.64050925925926
4	80275	143000	0.6262037037037
4	80275	143000	0.62618518518519
4	81344	145000	0.61366296296296
4	81344	145000	0.61366296296296
4	81344	145000	0.61338888888889
4	81607	145500	0.61019444444444
4	81607	145500	0.61018055555556
4	83961	150000	0.60857722222222
4	83961	150000	0.60857722222222
4	83961	150000	0.60854166666667
4	86748	155000	0.60674333333333
4	86748	155000	0.60674333333333
4	86748	155000	0.60672222222222
4	87011	155500	0.60654166666667
4	87011	155500	0.60651851851852
4	87274	156000	0.59221296296296
4	87274	156000	0.59219444444444
4	88591	158500	0.57622222222222
4	88591	158500	0.57620833333333
4	89395	160000	0.57568111111111
4	89395	160000	0.57568111111111
4	89395	160000	0.57565277777778
4	92151	165000	0.57386888888889
4	92151	165000	0.57386888888889
4	92151	165000	0.57383333333333
4	93995	168500	0.57256944444444
4	93995	168500	0.5725462962963
4	94258	169000	0.55824074074074
4	94258	169000	0.55822222222222
4	94814	170000	0.55196111111111
4	94814	170000	0.55196111111111
4	94814	170000	0.55181481481481
4	95744	171500	0.54223148148148
4	95744	171500	0.54221759259259
4	97321	175000	0.54096814814815
4	97321	175000	0.54096814814815
4	97321	175000	0.54093981481481
4	99583	180000	0.53915592592593
4	99583	180000	0.53915592592593
4	99583	180000	0.53912037037037
4	100365	181500	0.5385787037037
4	100365	181500	0.53855555555556
4	100619	182000	0.52425
4	100619	182000	0.52423148148148
4	101737	184500	0.50825925925926
4	101737	184500	0.50824537037037
4	101991	185000	0.50807203703704
4	101991	185000	0.50807203703704
4	101991	185000	0.50805092592593
4	104253	190000	0.50625981481481
4	104253	190000	0.50625981481481
4	104253	190000	0.50623148148148
4	106385	194500	0.50460648148148
4	106385	194500	0.50458333333333
4	106612	195000	0.49199444444444
4	106612	195000	0.49199444444444
4	106612	195000	0.49025462962963
4	106623	195000	0.49025462962963
4	106623	195000	0.49023611111111
4	107768	197500	0.47426388888889
4	107768	197500	0.47425
4	108923	200000	0.47335444444444
4	108923	200000	0.47335444444444
4	108923	200000	0.47333333333333
4	111271	205000	0.47154222222222
4	111271	205000	0.47154222222222
4	111271	205000	0.47151388888889
4	112416	207500	0.47061111111111
4	112416	207500	0.47058796296296
4	112643	208000	0.45628240740741
4	112643	208000	0.45626388888889
4	113555	210000	0.44386944444444
4	113555	210000	0.44386944444444
4	113555	210000	0.44346759259259
4	113845	210500	0.44027314814815
4	113845	210500	0.44025925925926
4	115425	215000	0.43864148148148
4	115425	215000	0.43864148148148
4	115425	215000	0.43862037037037
4	117177	220000	0.43682925925926
4	117177	220000	0.43682925925926
4	117177	220000	0.43680092592593
4	117374	220500	0.43662037037037
4	117374	220500	0.43659722222222
4	117568	221000	0.42229166666667
4	117568	221000	0.42227314814815
4	118434	223500	0.40630092592593
4	118434	223500	0.40628703703704
4	118964	225000	0.40576703703704
4	118964	225000	0.40576703703704
4	118964	225000	0.40573148148148
4	120737	230000	0.40393314814815
4	120737	230000	0.40393314814815
4	120737	230000	0.40391203703704
4	121984	233500	0.40264814814815
4	121984	233500	0.402625
4	122157	234000	0.38831944444444
4	122157	234000	0.38830092592593
4	122519	235000	0.38216759259259
4	122519	235000	0.38216759259259
4	122519	235000	0.38189351851852
4	123049	236500	0.37231018518519
4	123049	236500	0.3722962962963
4	124276	240000	0.37105407407407
4	124276	240000	0.37105407407407
4	124276	240000	0.37101851851852
4	126069	245000	0.36922018518519
4	126069	245000	0.36922018518519
4	126069	245000	0.36919907407407
4	126599	246500	0.36865740740741
4	126599	246500	0.36863425925926
4	126772	247000	0.3543287037037
4	126772	247000	0.35431018518519
4	127659	249500	0.33833796296296
4	127659	249500	0.33832407407407
4	127836	250000	0.33815796296296
4	127836	250000	0.33815796296296
4	127836	250000	0.33812962962963
4	129608	255000	0.33634574074074
4	129608	255000	0.33634574074074
4	129608	255000	0.33631018518519
4	131188	259500	0.33468518518519
4	131188	259500	0.33466203703704
4	131386	260000	0.3209287037037
4	131386	260000	0.3209287037037
4	131386	260000	0.32033333333333
4	131391	260000	0.32033333333333
4	131391	260000	0.32031481481481
4	132281	262500	0.30434259259259
4	132281	262500	0.3043287037037
4	133168	265000	0.30344037037037
4	133168	265000	0.30344037037037
4	133168	265000	0.30341203703704
4	134920	270000	0.30162814814815
4	134920	270000	0.30162814814815
4	134920	270000	0.30159259259259
4	135831	272500	0.30068981481481
4	135831	272500	0.30066666666667
4	136004	273000	0.28636111111111
4	136004	273000	0.28634259259259
4	136619	275000	0.27369259259259
4	136619	275000	0.27369259259259
4	136619	275000	0.2735462962963
4	136756	275500	0.27035185185185
4	136756	275500	0.27033796296296
4	138032	280000	0.26872740740741
4	138032	280000	0.26872740740741
4	138032	280000	0.26869907407407
4	139444	285000	0.26691518518519
4	139444	285000	0.26691518518519
4	139444	285000	0.26687962962963
4	139598	285500	0.26669907407407
4	139598	285500	0.26667592592593
4	139735	286000	0.25237037037037
4	139735	286000	0.25235185185185
4	140450	288500	0.23637962962963
4	140450	288500	0.23636574074074
4	140876	290000	0.2358312962963
4	140876	290000	0.2358312962963
4	140876	290000	0.23581018518519
4	142288	295000	0.23401907407407
4	142288	295000	0.23401907407407
4	142288	295000	0.23399074074074
4	143275	298500	0.23272685185185
4	143275	298500	0.2327037037037
4	143429	299000	0.21839814814815
4	143429	299000	0.21837962962963
4	143702	300000	0.21237407407407
4	143702	300000	0.21237407407407
4	143702	300000	0.21197222222222
4	144128	301500	0.20238888888889
4	144128	301500	0.202375
4	145132	305000	0.20111833333333
4	145132	305000	0.20111833333333
4	145132	305000	0.20109722222222
4	146544	310000	0.19930611111111
4	146544	310000	0.19930611111111
4	146544	310000	0.19927777777778
4	146970	311500	0.19873611111111
4	146970	311500	0.19871296296296
4	147107	312000	0.18440740740741
4	147107	312000	0.18438888888889
4	147822	314500	0.16841666666667
4	147822	314500	0.16840277777778
4	147959	315000	0.16824388888889
4	147959	315000	0.16824388888889
4	147959	315000	0.16820833333333
4	149388	320000	0.16641
4	149388	320000	0.16641
4	149388	320000	0.16638888888889
4	150664	324500	0.16476388888889
4	150664	324500	0.16474074074074
4	150801	325000	0.15157962962963
4	150801	325000	0.15157962962963
4	150801	325000	0.15041203703704
4	150802	325000	0.15041203703704
4	150802	325000	0.15039351851852
4	151517	327500	0.1344212962963
4	151517	327500	0.13440740740741
4	152215	330000	0.1335262962963
4	152215	330000	0.1335262962963
4	152215	330000	0.13349074074074
4	153644	335000	0.13169240740741
4	153644	335000	0.13169240740741
4	153644	335000	0.1316712962963
4	154342	337500	0.13076851851852
4	154342	337500	0.13074537037037
4	154496	338000	0.11643981481481
4	154496	338000	0.1164212962963
4	155058	340000	0.10389907407407
4	155058	340000	0.10389907407407
4	155058	340000	0.103625
4	155195	340500	0.10043055555556
4	155195	340500	0.10041666666667
4	156471	345000	0.098813333333333
4	156471	345000	0.098813333333333
4	156471	345000	0.098777777777778
4	157900	350000	0.096979444444444
4	157900	350000	0.096979444444444
4	157900	350000	0.096958333333333
4	158037	350500	0.096777777777778
4	158037	350500	0.09675462962963
4	158174	351000	0.082449074074074
4	158174	351000	0.082430555555556
4	158889	353500	0.066458333333333
4	158889	353500	0.066444444444444
4	159315	355000	0.065917222222222
4	159315	355000	0.065917222222222
4	159315	355000	0.065888888888889
4	160727	360000	0.064105
4	160727	360000	0.064105
4	160727	360000	0.064069444444444
4	161731	363500	0.062805555555556
4	161731	363500	0.062782407407407
4	161868	364000	0.048476851851852
4	161868	364000	0.048458333333333
4	162158	365000	0.042197222222222
4	162158	365000	0.042197222222222
4	162158	365000	0.042050925925926
4	162584	366500	0.032467592592593
4	162584	366500	0.032453703703704
4	163571	370000	0.031204259259259
4	163571	370000	0.031204259259259
4	163571	370000	0.031175925925926
4	164983	375000	0.029392037037037
4	164983	375000	0.029392037037037
4	164983	375000	0.029356481481481
4	165409	376500	0.028814814814815
4	165409	376500	0.028791666666667
4	165563	377000	0.014486111111111
4	165563	377000	0.014467592592593
5	0	0	10800000
5	1473	2500	10627500
5	1473	2500	10627350
5	2833	5000	10617678
5	2833	5000	10617678
5	2833	5000	10617450
5	5520	10000	10598106
5	5520	10000	10598106
5	5520	10000	10597800
5	7072	12500	10588050
5	7072	12500	10587800
5	7344	13000	10433300
5	7344	13000	10433100
5	8416	15000	10299240
5	8416	15000	10299240
5	8416	15000	10294900
5	8720	15500	10260400
5	8720	15500	10260250
5	11151	20000	10242778
5	11151	20000	10242778
5	11151	20000	10242550
5	14015	25000	10223206
5	14015	25000	10223206
5	14015	25000	10222900
5	14287	25500	10220950
5	14287	25500	10220700
5	14591	26000	10066200
5	14591	26000	10066000
5	15919	28500	9893500
5	15919	28500	9893350
5	16750	30000	9887734
5	16750	30000	9887734
5	16750	30000	9887350
5	19646	35000	9867928
5	19646	35000	9867928
5	19646	35000	9867700
5	21518	38500	9854050
5	21518	38500	9853800
5	21790	39000	9699300
5	21790	39000	9699100
5	22365	40000	9632860
5	22365	40000	9632860
5	22365	40000	9629900
5	23373	41500	9526400
5	23373	41500	9526250
5	25245	45000	9512834
5	25245	45000	9512834
5	25245	45000	9512450
5	27964	50000	9493028
5	27964	50000	9493028
5	27964	50000	9492800
5	28972	51500	9486950
5	28972	51500	9486700
5	29244	52000	9332200
5	29244	52000	9332000
5	30604	54500	9159500
5	30604	54500	9159350
5	30876	55000	9157556
5	30876	55000	9157556
5	30876	55000	9157250
5	33563	60000	9137984
5	33563	60000	9137984
5	33563	60000	9137600
5	36171	64500	9120050
5	36171	64500	9119800
5	36475	65000	8971480
5	36475	65000	8971480
5	36475	65000	8965050
5	36491	65000	8965050
5	36491	65000	8964850
5	37819	67500	8792350
5	37819	67500	8792200
5	39194	70000	8782606
5	39194	70000	8782606
5	39194	70000	8782300
5	42058	75000	8763034
5	42058	75000	8763034
5	42058	75000	8762650
5	43418	77500	8752900
5	43418	77500	8752650
5	43690	78000	8598150
5	43690	78000	8597950
5	44809	80000	8461330
5	44809	80000	8461330
5	44809	80000	8459750
5	45273	80500	8425250
5	45273	80500	8425100
5	47689	85000	8407706
5	47689	85000	8407706
5	47689	85000	8407400
5	50376	90000	8388134
5	50376	90000	8388134
5	50376	90000	8387750
5	50872	90500	8385800
5	50872	90500	8385550
5	51144	91000	8231050
5	51144	91000	8230850
5	52504	93500	8058350
5	52504	93500	8058200
5	53320	95000	8052428
5	53320	95000	8052428
5	53320	95000	8052200
5	56007	100000	8032856
5	56007	100000	8032856
5	56007	100000	8032550
5	58071	103500	8018900
5	58071	103500	8018650
5	58375	104000	7864150
5	58375	104000	7863950
5	58903	105000	7799090
5	58903	105000	7799090
5	58903	105000	7794750
5	59719	106500	7691250
5	59719	106500	7691100
5	61638	110000	7677528
5	61638	110000	7677528
5	61638	110000	7677300
5	64502	115000	7657956
5	64502	115000	7657956
5	64502	115000	7657650
5	65318	116500	7651800
5	65318	116500	7651550
5	65590	117000	7497050
5	65590	117000	7496850
5	66950	119500	7324350
5	66950	119500	7324200
5	67237	120000	7322484
5	67237	120000	7322484
5	67237	120000	7322100
5	70133	125000	7302678
5	70133	125000	7302678
5	70133	125000	7302450
5	72549	129500	7284900
5	72549	129500	7284650
5	72836	130000	7142510
5	72836	130000	7142510
5	72836	130000	7129900
5	72852	130000	7129900
5	72852	130000	7129700
5	74404	132500	6957200
5	74404	132500	6957050
5	75732	135000	6947534
5	75732	135000	6947534
5	75732	135000	6947150
5	78451	140000	6927728
5	78451	140000	6927728
5	78451	140000	6927500
5	79971	142500	6917750
5	79971	142500	6917500
5	80275	143000	6763000
5	80275	143000	6762800
5	81344	145000	6627560
5	81344	145000	6627560
5	81344	145000	6624600
5	81607	145500	6590100
5	81607	145500	6589950
5	83961	150000	6572634
5	83961	150000	6572634
5	83961	150000	6572250
5	86748	155000	6552828
5	86748	155000	6552828
5	86748	155000	6552600
5	87011	155500	6550650
5	87011	155500	6550400
5	87274	156000	6395900
5	87274	156000	6395700
5	88591	158500	6223200
5	88591	158500	6223050
5	89395	160000	6217356
5	89395	160000	6217356
5	89395	160000	6217050
5	92151	165000	6197784
5	92151	165000	6197784
5	92151	165000	6197400
5	93995	168500	6183750
5	93995	168500	6183500
5	94258	169000	6029000
5	94258	169000	6028800
5	94814	170000	5961180
5	94814	170000	5961180
5	94814	170000	5959600
5	95744	171500	5856100
5	95744	171500	5855950
5	97321	175000	5842456
5	97321	175000	5842456
5	97321	175000	5842150
5	99583	180000	5822884
5	99583	180000	5822884
5	99583	180000	5822500
5	100365	181500	5816650
5	100365	181500	5816400
5	100619	182000	5661900
5	100619	182000	5661700
5	101737	184500	5489200
5	101737	184500	5489050
5	101991	185000	5487178
5	101991	185000	5487178
5	101991	185000	5486950
5	104253	190000	5467606
5	104253	190000	5467606
5	104253	190000	5467300
5	106385	194500	5449750
5	106385	194500	5449500
5	106612	195000	5313540
5	106612	195000	5313540
5	106612	195000	5294750
5	106623	195000	5294750
5	106623	195000	5294550
5	107768	197500	5122050
5	107768	197500	5121900
5	108923	200000	5112228
5	108923	200000	5112228
5	108923	200000	5112000
5	111271	205000	5092656
5	111271	205000	5092656
5	111271	205000	5092350
5	112416	207500	5082600
5	112416	207500	5082350
5	112643	208000	4927850
5	112643	208000	4927650
5	113555	210000	4793790
5	113555	210000	4793790
5	113555	210000	4789450
5	113845	210500	4754950
5	113845	210500	4754800
5	115425	215000	4737328
5	115425	215000	4737328
5	115425	215000	4737100
5	117177	220000	4717756
5	117177	220000	4717756
5	117177	220000	4717450
5	117374	220500	4715500
5	117374	220500	4715250
5	117568	221000	4560750
5	117568	221000	4560550
5	118434	223500	4388050
5	118434	223500	4387900
5	118964	225000	4382284
5	118964	225000	4382284
5	118964	225000	4381900
5	120737	230000	4362478
5	120737	230000	4362478
5	120737	230000	4362250
5	121984	233500	4348600
5	121984	233500	4348350
5	122157	234000	4193850
5	122157	234000	4193650
5	122519	235000	4127410
5	122519	235000	4127410
5	122519	235000	4124450
5	123049	236500	4020950
5	123049	236500	4020800
5	124276	240000	4007384
5	124276	240000	4007384
5	124276	240000	4007000
5	126069	245000	3987578
5	126069	245000	3987578
5	126069	245000	3987350
5	126599	246500	3981500
5	126599	246500	3981250
5	126772	247000	3826750
5	126772	247000	3826550
5	127659	249500	3654050
5	127659	249500	3653900
5	127836	250000	3652106
5	127836	250000	3652106
5	127836	250000	3651800
5	129608	255000	3632534
5	129608	255000	3632534
5	129608	255000	3632150
5	131188	259500	3614600
5	131188	259500	3614350
5	131386	260000	3466030
5	131386	260000	3466030
5	131386	260000	3459600
5	131391	260000	3459600
5	131391	260000	3459400
5	132281	262500	3286900
5	132281	262500	3286750
5	133168	265000	3277156
5	133168	265000	3277156
5	133168	265000	3276850
5	134920	270000	3257584
5	134920	270000	3257584
5	134920	270000	3257200
5	135831	272500	3247450
5	135831	272500	3247200
5	136004	273000	3092700
5	136004	273000	3092500
5	136619	275000	2955880
5	136619	275000	2955880
5	136619	275000	2954300
5	136756	275500	2919800
5	136756	275500	2919650
5	138032	280000	2902256
5	138032	280000	2902256
5	138032	280000	2901950
5	139444	285000	2882684
5	139444	285000	2882684
5	139444	285000	2882300
5	139598	285500	2880350
5	139598	285500	2880100
5	139735	286000	2725600
5	139735	286000	2725400
5	140450	288500	2552900
5	140450	288500	2552750
5	140876	290000	2546978
5	140876	290000	2546978
5	140876	290000	2546750
5	142288	295000	2527406
5	142288	295000	2527406