file 709717 1434387810                                          
version 2
run General-0-20150615-19:02:50-20121
attr configname General
attr datetime 20150615-19:02:50
attr experiment General
attr inifile omnetpp.ini
attr iterationvars ""
attr iterationvars2 $repetition=0
attr measurement ""
attr network AllNodes
attr processid 20121
attr repetition 0
attr replication #0
attr resultdir results
attr runnumber 0
attr seedset 0

vector 3  AllNodes.SensorNode[0].Processor  "power mode"  ETV
vector 4  AllNodes.SensorNode[0].Processor  "Sensor Modules Status"  ETV
vector 5  AllNodes.SensorNode[0].Processor  Voltage  ETV
vector 6  AllNodes.SensorNode[0].Processor  residualRelative  ETV
vector 7  AllNodes.SensorNode[0].Processor  residualAbs  ETV
vector 11  AllNodes.TNode[0].Processor  "power mode"  ETV
vector 12  AllNodes.TNode[0].Processor  "Sensor Modules Status"  ETV
vector 13  AllNodes.TNode[0].Processor  Voltage  ETV
vector 14  AllNodes.TNode[0].Processor  residualRelative  ETV
vector 15  AllNodes.TNode[0].Processor  residualAbs  ETV
vector 19  AllNodes.PNode[0].Processor  "power mode"  ETV
vector 20  AllNodes.PNode[0].Processor  "Sensor Modules Status"  ETV
vector 21  AllNodes.PNode[0].Processor  Voltage  ETV
vector 22  AllNodes.PNode[0].Processor  residualRelative  ETV
vector 23  AllNodes.PNode[0].Processor  residualAbs  ETV
vector 27  AllNodes.HNode[0].Processor  "power mode"  ETV
vector 28  AllNodes.HNode[0].Processor  "Sensor Modules Status"  ETV
vector 29  AllNodes.HNode[0].Processor  Voltage  ETV
vector 30  AllNodes.HNode[0].Processor  residualRelative  ETV
vector 31  AllNodes.HNode[0].Processor  residualAbs  ETV
vector 35  AllNodes.LNode[0].Processor  "power mode"  ETV
vector 36  AllNodes.LNode[0].Processor  "Sensor Modules Status"  ETV
vector 37  AllNodes.LNode[0].Processor  Voltage  ETV
vector 38  AllNodes.LNode[0].Processor  residualRelative  ETV
vector 39  AllNodes.LNode[0].Processor  residualAbs  ETV
vector 43  AllNodes.TPNode[0].Processor  "power mode"  ETV
vector 44  AllNodes.TPNode[0].Processor  "Sensor Modules Status"  ETV
vector 45  AllNodes.TPNode[0].Processor  Voltage  ETV
vector 46  AllNodes.TPNode[0].Processor  residualRelative  ETV
vector 47  AllNodes.TPNode[0].Processor  residualAbs  ETV
vector 51  AllNodes.THNode[0].Processor  "power mode"  ETV
vector 52  AllNodes.THNode[0].Processor  "Sensor Modules Status"  ETV
vector 53  AllNodes.THNode[0].Processor  Voltage  ETV
vector 54  AllNodes.THNode[0].Processor  residualRelative  ETV
vector 55  AllNodes.THNode[0].Processor  residualAbs  ETV
vector 59  AllNodes.TLNode[0].Processor  "power mode"  ETV
vector 60  AllNodes.TLNode[0].Processor  "Sensor Modules Status"  ETV
vector 61  AllNodes.TLNode[0].Processor  Voltage  ETV
vector 62  AllNodes.TLNode[0].Processor  residualRelative  ETV
vector 63  AllNodes.TLNode[0].Processor  residualAbs  ETV
vector 67  AllNodes.PHNode[0].Processor  "power mode"  ETV
vector 68  AllNodes.PHNode[0].Processor  "Sensor Modules Status"  ETV
vector 69  AllNodes.PHNode[0].Processor  Voltage  ETV
vector 70  AllNodes.PHNode[0].Processor  residualRelative  ETV
vector 71  AllNodes.PHNode[0].Processor  residualAbs  ETV
vector 75  AllNodes.PLNode[0].Processor  "power mode"  ETV
vector 76  AllNodes.PLNode[0].Processor  "Sensor Modules Status"  ETV
vector 77  AllNodes.PLNode[0].Processor  Voltage  ETV
vector 78  AllNodes.PLNode[0].Processor  residualRelative  ETV
vector 79  AllNodes.PLNode[0].Processor  residualAbs  ETV
vector 83  AllNodes.HLNode[0].Processor  "power mode"  ETV
vector 84  AllNodes.HLNode[0].Processor  "Sensor Modules Status"  ETV
vector 85  AllNodes.HLNode[0].Processor  Voltage  ETV
vector 86  AllNodes.HLNode[0].Processor  residualRelative  ETV
vector 87  AllNodes.HLNode[0].Processor  residualAbs  ETV
vector 91  AllNodes.PHLNode[0].Processor  "power mode"  ETV
vector 92  AllNodes.PHLNode[0].Processor  "Sensor Modules Status"  ETV
vector 93  AllNodes.PHLNode[0].Processor  Voltage  ETV
vector 94  AllNodes.PHLNode[0].Processor  residualRelative  ETV
vector 95  AllNodes.PHLNode[0].Processor  residualAbs  ETV
vector 99  AllNodes.THLNode[0].Processor  "power mode"  ETV
vector 100  AllNodes.THLNode[0].Processor  "Sensor Modules Status"  ETV
vector 101  AllNodes.THLNode[0].Processor  Voltage  ETV
vector 102  AllNodes.THLNode[0].Processor  residualRelative  ETV
vector 103  AllNodes.THLNode[0].Processor  residualAbs  ETV
vector 107  AllNodes.TPLNode[0].Processor  "power mode"  ETV
vector 108  AllNodes.TPLNode[0].Processor  "Sensor Modules Status"  ETV
vector 109  AllNodes.TPLNode[0].Processor  Voltage  ETV
vector 110  AllNodes.TPLNode[0].Processor  residualRelative  ETV
vector 111  AllNodes.TPLNode[0].Processor  residualAbs  ETV
vector 115  AllNodes.TPHNode[0].Processor  "power mode"  ETV
vector 116  AllNodes.TPHNode[0].Processor  "Sensor Modules Status"  ETV
vector 117  AllNodes.TPHNode[0].Processor  Voltage  ETV
vector 118  AllNodes.TPHNode[0].Processor  residualRelative  ETV
vector 119  AllNodes.TPHNode[0].Processor  residualAbs  ETV
vector 123  AllNodes.TPHLNode[0].Processor  "power mode"  ETV
vector 124  AllNodes.TPHLNode[0].Processor  "Sensor Modules Status"  ETV
vector 125  AllNodes.TPHLNode[0].Processor  Voltage  ETV
vector 126  AllNodes.TPHLNode[0].Processor  residualRelative  ETV
vector 127  AllNodes.TPHLNode[0].Processor  residualAbs  ETV
vector 128  AllNodes.SensorNode[0].Memory  "Energy Consumptions"  ETV
vector 129  AllNodes.SensorNode[0].Memory  "Current use over time"  ETV
vector 130  AllNodes.TNode[0].TemperatureSensor.SensingUnit  "Energy Consumptions"  ETV
vector 131  AllNodes.TNode[0].TemperatureSensor.SensingUnit  "Current use over time"  ETV
vector 132  AllNodes.TNode[0].TemperatureSensor.SignalConditioner  "Energy Consumptions"  ETV
vector 133  AllNodes.TNode[0].TemperatureSensor.SignalConditioner  "Current use over time"  ETV
vector 134  AllNodes.TNode[0].TemperatureSensor.SignalConverter  "Energy Consumptions"  ETV
vector 135  AllNodes.TNode[0].TemperatureSensor.SignalConverter  "Current use over time"  ETV
vector 136  AllNodes.TNode[0].TemperatureSensor.Transducer  "Energy Consumptions"  ETV
vector 137  AllNodes.TNode[0].TemperatureSensor.Transducer  "Current use over time"  ETV
vector 138  AllNodes.TNode[0].Memory  "Energy Consumptions"  ETV
vector 139  AllNodes.TNode[0].Memory  "Current use over time"  ETV
vector 140  AllNodes.PNode[0].PressureSensor.SensingUnit  "Energy Consumptions"  ETV
vector 141  AllNodes.PNode[0].PressureSensor.SensingUnit  "Current use over time"  ETV
vector 142  AllNodes.PNode[0].PressureSensor.SignalConditioner  "Energy Consumptions"  ETV
vector 143  AllNodes.PNode[0].PressureSensor.SignalConditioner  "Current use over time"  ETV
vector 144  AllNodes.PNode[0].PressureSensor.SignalConverter  "Energy Consumptions"  ETV
vector 145  AllNodes.PNode[0].PressureSensor.SignalConverter  "Current use over time"  ETV
vector 146  AllNodes.PNode[0].PressureSensor.Transducer  "Energy Consumptions"  ETV
vector 147  AllNodes.PNode[0].PressureSensor.Transducer  "Current use over time"  ETV
vector 148  AllNodes.PNode[0].Memory  "Energy Consumptions"  ETV
vector 149  AllNodes.PNode[0].Memory  "Current use over time"  ETV
vector 150  AllNodes.HNode[0].HumiditySensor.SensingUnit  "Energy Consumptions"  ETV
vector 151  AllNodes.HNode[0].HumiditySensor.SensingUnit  "Current use over time"  ETV
vector 152  AllNodes.HNode[0].HumiditySensor.SignalConditioner  "Energy Consumptions"  ETV
vector 153  AllNodes.HNode[0].HumiditySensor.SignalConditioner  "Current use over time"  ETV
vector 154  AllNodes.HNode[0].HumiditySensor.SignalConverter  "Energy Consumptions"  ETV
vector 155  AllNodes.HNode[0].HumiditySensor.SignalConverter  "Current use over time"  ETV
vector 156  AllNodes.HNode[0].HumiditySensor.Transducer  "Energy Consumptions"  ETV
vector 157  AllNodes.HNode[0].HumiditySensor.Transducer  "Current use over time"  ETV
vector 158  AllNodes.HNode[0].Memory  "Energy Consumptions"  ETV
vector 159  AllNodes.HNode[0].Memory  "Current use over time"  ETV
vector 160  AllNodes.LNode[0].LightSensor.SensingUnit  "Energy Consumptions"  ETV
vector 161  AllNodes.LNode[0].LightSensor.SensingUnit  "Current use over time"  ETV
vector 162  AllNodes.LNode[0].LightSensor.SignalConditioner  "Energy Consumptions"  ETV
vector 163  AllNodes.LNode[0].LightSensor.SignalConditioner  "Current use over time"  ETV
vector 164  AllNodes.LNode[0].LightSensor.SignalConverter  "Energy Consumptions"  ETV
vector 165  AllNodes.LNode[0].LightSensor.SignalConverter  "Current use over time"  ETV
vector 166  AllNodes.LNode[0].LightSensor.Transducer  "Energy Consumptions"  ETV
vector 167  AllNodes.LNode[0].LightSensor.Transducer  "Current use over time"  ETV
vector 168  AllNodes.LNode[0].Memory  "Energy Consumptions"  ETV
vector 169  AllNodes.LNode[0].Memory  "Current use over time"  ETV
vector 170  AllNodes.TPNode[0].TemperatureSensor.SensingUnit  "Energy Consumptions"  ETV
vector 171  AllNodes.TPNode[0].TemperatureSensor.SensingUnit  "Current use over time"  ETV
vector 172  AllNodes.TPNode[0].TemperatureSensor.SignalConditioner  "Energy Consumptions"  ETV
vector 173  AllNodes.TPNode[0].TemperatureSensor.SignalConditioner  "Current use over time"  ETV
vector 174  AllNodes.TPNode[0].TemperatureSensor.SignalConverter  "Energy Consumptions"  ETV
vector 175  AllNodes.TPNode[0].TemperatureSensor.SignalConverter  "Current use over time"  ETV
vector 176  AllNodes.TPNode[0].TemperatureSensor.Transducer  "Energy Consumptions"  ETV
vector 177  AllNodes.TPNode[0].TemperatureSensor.Transducer  "Current use over time"  ETV
vector 178  AllNodes.TPNode[0].PressureSensor.SensingUnit  "Energy Consumptions"  ETV
vector 179  AllNodes.TPNode[0].PressureSensor.SensingUnit  "Current use over time"  ETV
vector 180  AllNodes.TPNode[0].PressureSensor.SignalConditioner  "Energy Consumptions"  ETV
vector 181  AllNodes.TPNode[0].PressureSensor.SignalConditioner  "Current use over time"  ETV
vector 182  AllNodes.TPNode[0].PressureSensor.SignalConverter  "Energy Consumptions"  ETV
vector 183  AllNodes.TPNode[0].PressureSensor.SignalConverter  "Current use over time"  ETV
vector 184  AllNodes.TPNode[0].PressureSensor.Transducer  "Energy Consumptions"  ETV
vector 185  AllNodes.TPNode[0].PressureSensor.Transducer  "Current use over time"  ETV
vector 186  AllNodes.TPNode[0].Memory  "Energy Consumptions"  ETV
vector 187  AllNodes.TPNode[0].Memory  "Current use over time"  ETV
vector 188  AllNodes.THNode[0].TemperatureSensor.SensingUnit  "Energy Consumptions"  ETV
vector 189  AllNodes.THNode[0].TemperatureSensor.SensingUnit  "Current use over time"  ETV
vector 190  AllNodes.THNode[0].TemperatureSensor.SignalConditioner  "Energy Consumptions"  ETV
vector 191  AllNodes.THNode[0].TemperatureSensor.SignalConditioner  "Current use over time"  ETV
vector 192  AllNodes.THNode[0].TemperatureSensor.SignalConverter  "Energy Consumptions"  ETV
vector 193  AllNodes.THNode[0].TemperatureSensor.SignalConverter  "Current use over time"  ETV
vector 194  AllNodes.THNode[0].TemperatureSensor.Transducer  "Energy Consumptions"  ETV
vector 195  AllNodes.THNode[0].TemperatureSensor.Transducer  "Current use over time"  ETV
vector 196  AllNodes.THNode[0].HumiditySensor.SensingUnit  "Energy Consumptions"  ETV
vector 197  AllNodes.THNode[0].HumiditySensor.SensingUnit  "Current use over time"  ETV
vector 198  AllNodes.THNode[0].HumiditySensor.SignalConditioner  "Energy Consumptions"  ETV
vector 199  AllNodes.THNode[0].HumiditySensor.SignalConditioner  "Current use over time"  ETV
vector 200  AllNodes.THNode[0].HumiditySensor.SignalConverter  "Energy Consumptions"  ETV
vector 201  AllNodes.THNode[0].HumiditySensor.SignalConverter  "Current use over time"  ETV
vector 202  AllNodes.THNode[0].HumiditySensor.Transducer  "Energy Consumptions"  ETV
vector 203  AllNodes.THNode[0].HumiditySensor.Transducer  "Current use over time"  ETV
vector 204  AllNodes.THNode[0].Memory  "Energy Consumptions"  ETV
vector 205  AllNodes.THNode[0].Memory  "Current use over time"  ETV
vector 206  AllNodes.TLNode[0].TemperatureSensor.SensingUnit  "Energy Consumptions"  ETV
vector 207  AllNodes.TLNode[0].TemperatureSensor.SensingUnit  "Current use over time"  ETV
vector 208  AllNodes.TLNode[0].TemperatureSensor.SignalConditioner  "Energy Consumptions"  ETV
vector 209  AllNodes.TLNode[0].TemperatureSensor.SignalConditioner  "Current use over time"  ETV
vector 210  AllNodes.TLNode[0].TemperatureSensor.SignalConverter  "Energy Consumptions"  ETV
vector 211  AllNodes.TLNode[0].TemperatureSensor.SignalConverter  "Current use over time"  ETV
vector 212  AllNodes.TLNode[0].TemperatureSensor.Transducer  "Energy Consumptions"  ETV
vector 213  AllNodes.TLNode[0].TemperatureSensor.Transducer  "Current use over time"  ETV
vector 214  AllNodes.TLNode[0].LightSensor.SensingUnit  "Energy Consumptions"  ETV
vector 215  AllNodes.TLNode[0].LightSensor.SensingUnit  "Current use over time"  ETV
vector 216  AllNodes.TLNode[0].LightSensor.SignalConditioner  "Energy Consumptions"  ETV
vector 217  AllNodes.TLNode[0].LightSensor.SignalConditioner  "Current use over time"  ETV
vector 218  AllNodes.TLNode[0].LightSensor.SignalConverter  "Energy Consumptions"  ETV
vector 219  AllNodes.TLNode[0].LightSensor.SignalConverter  "Current use over time"  ETV
vector 220  AllNodes.TLNode[0].LightSensor.Transducer  "Energy Consumptions"  ETV
vector 221  AllNodes.TLNode[0].LightSensor.Transducer  "Current use over time"  ETV
vector 222  AllNodes.TLNode[0].Memory  "Energy Consumptions"  ETV
vector 223  AllNodes.TLNode[0].Memory  "Current use over time"  ETV
vector 224  AllNodes.PHNode[0].HumiditySensor.SensingUnit  "Energy Consumptions"  ETV
vector 225  AllNodes.PHNode[0].HumiditySensor.SensingUnit  "Current use over time"  ETV
vector 226  AllNodes.PHNode[0].HumiditySensor.SignalConditioner  "Energy Consumptions"  ETV
vector 227  AllNodes.PHNode[0].HumiditySensor.SignalConditioner  "Current use over time"  ETV
vector 228  AllNodes.PHNode[0].HumiditySensor.SignalConverter  "Energy Consumptions"  ETV
vector 229  AllNodes.PHNode[0].HumiditySensor.SignalConverter  "Current use over time"  ETV
vector 230  AllNodes.PHNode[0].HumiditySensor.Transducer  "Energy Consumptions"  ETV
vector 231  AllNodes.PHNode[0].HumiditySensor.Transducer  "Current use over time"  ETV
vector 232  AllNodes.PHNode[0].PressureSensor.SensingUnit  "Energy Consumptions"  ETV
vector 233  AllNodes.PHNode[0].PressureSensor.SensingUnit  "Current use over time"  ETV
vector 234  AllNodes.PHNode[0].PressureSensor.SignalConditioner  "Energy Consumptions"  ETV
vector 235  AllNodes.PHNode[0].PressureSensor.SignalConditioner  "Current use over time"  ETV
vector 236  AllNodes.PHNode[0].PressureSensor.SignalConverter  "Energy Consumptions"  ETV
vector 237  AllNodes.PHNode[0].PressureSensor.SignalConverter  "Current use over time"  ETV
vector 238  AllNodes.PHNode[0].PressureSensor.Transducer  "Energy Consumptions"  ETV
vector 239  AllNodes.PHNode[0].PressureSensor.Transducer  "Current use over time"  ETV
vector 240  AllNodes.PHNode[0].Memory  "Energy Consumptions"  ETV
vector 241  AllNodes.PHNode[0].Memory  "Current use over time"  ETV
vector 242  AllNodes.PLNode[0].PressureSensor.SensingUnit  "Energy Consumptions"  ETV
vector 243  AllNodes.PLNode[0].PressureSensor.SensingUnit  "Current use over time"  ETV
vector 244  AllNodes.PLNode[0].PressureSensor.SignalConditioner  "Energy Consumptions"  ETV
vector 245  AllNodes.PLNode[0].PressureSensor.SignalConditioner  "Current use over time"  ETV
vector 246  AllNodes.PLNode[0].PressureSensor.SignalConverter  "Energy Consumptions"  ETV
vector 247  AllNodes.PLNode[0].PressureSensor.SignalConverter  "Current use over time"  ETV
vector 248  AllNodes.PLNode[0].PressureSensor.Transducer  "Energy Consumptions"  ETV
vector 249  AllNodes.PLNode[0].PressureSensor.Transducer  "Current use over time"  ETV
vector 250  AllNodes.PLNode[0].LightSensor.SensingUnit  "Energy Consumptions"  ETV
vector 251  AllNodes.PLNode[0].LightSensor.SensingUnit  "Current use over time"  ETV
vector 252  AllNodes.PLNode[0].LightSensor.SignalConditioner  "Energy Consumptions"  ETV
vector 253  AllNodes.PLNode[0].LightSensor.SignalConditioner  "Current use over time"  ETV
vector 254  AllNodes.PLNode[0].LightSensor.SignalConverter  "Energy Consumptions"  ETV
vector 255  AllNodes.PLNode[0].LightSensor.SignalConverter  "Current use over time"  ETV
vector 256  AllNodes.PLNode[0].LightSensor.Transducer  "Energy Consumptions"  ETV
vector 257  AllNodes.PLNode[0].LightSensor.Transducer  "Current use over time"  ETV
vector 258  AllNodes.PLNode[0].Memory  "Energy Consumptions"  ETV
vector 259  AllNodes.PLNode[0].Memory  "Current use over time"  ETV
vector 260  AllNodes.HLNode[0].HumiditySensor.SensingUnit  "Energy Consumptions"  ETV
vector 261  AllNodes.HLNode[0].HumiditySensor.SensingUnit  "Current use over time"  ETV
vector 262  AllNodes.HLNode[0].HumiditySensor.SignalConditioner  "Energy Consumptions"  ETV
vector 263  AllNodes.HLNode[0].HumiditySensor.SignalConditioner  "Current use over time"  ETV
vector 264  AllNodes.HLNode[0].HumiditySensor.SignalConverter  "Energy Consumptions"  ETV
vector 265  AllNodes.HLNode[0].HumiditySensor.SignalConverter  "Current use over time"  ETV
vector 266  AllNodes.HLNode[0].HumiditySensor.Transducer  "Energy Consumptions"  ETV
vector 267  AllNodes.HLNode[0].HumiditySensor.Transducer  "Current use over time"  ETV
vector 268  AllNodes.HLNode[0].LightSensor.SensingUnit  "Energy Consumptions"  ETV
vector 269  AllNodes.HLNode[0].LightSensor.SensingUnit  "Current use over time"  ETV
vector 270  AllNodes.HLNode[0].LightSensor.SignalConditioner  "Energy Consumptions"  ETV
vector 271  AllNodes.HLNode[0].LightSensor.SignalConditioner  "Current use over time"  ETV
vector 272  AllNodes.HLNode[0].LightSensor.SignalConverter  "Energy Consumptions"  ETV
vector 273  AllNodes.HLNode[0].LightSensor.SignalConverter  "Current use over time"  ETV
vector 274  AllNodes.HLNode[0].LightSensor.Transducer  "Energy Consumptions"  ETV
vector 275  AllNodes.HLNode[0].LightSensor.Transducer  "Current use over time"  ETV
vector 276  AllNodes.HLNode[0].Memory  "Energy Consumptions"  ETV
vector 277  AllNodes.HLNode[0].Memory  "Current use over time"  ETV
vector 278  AllNodes.PHLNode[0].HumiditySensor.SensingUnit  "Energy Consumptions"  ETV
vector 279  AllNodes.PHLNode[0].HumiditySensor.SensingUnit  "Current use over time"  ETV
vector 280  AllNodes.PHLNode[0].HumiditySensor.SignalConditioner  "Energy Consumptions"  ETV
vector 281  AllNodes.PHLNode[0].HumiditySensor.SignalConditioner  "Current use over time"  ETV
vector 282  AllNodes.PHLNode[0].HumiditySensor.SignalConverter  "Energy Consumptions"  ETV
vector 283  AllNodes.PHLNode[0].HumiditySensor.SignalConverter  "Current use over time"  ETV
vector 284  AllNodes.PHLNode[0].HumiditySensor.Transducer  "Energy Consumptions"  ETV
vector 285  AllNodes.PHLNode[0].HumiditySensor.Transducer  "Current use over time"  ETV
vector 286  AllNodes.PHLNode[0].PressureSensor.SensingUnit  "Energy Consumptions"  ETV
vector 287  AllNodes.PHLNode[0].PressureSensor.SensingUnit  "Current use over time"  ETV
vector 288  AllNodes.PHLNode[0].PressureSensor.SignalConditioner  "Energy Consumptions"  ETV
vector 289  AllNodes.PHLNode[0].PressureSensor.SignalConditioner  "Current use over time"  ETV
vector 290  AllNodes.PHLNode[0].PressureSensor.SignalConverter  "Energy Consumptions"  ETV
vector 291  AllNodes.PHLNode[0].PressureSensor.SignalConverter  "Current use over time"  ETV
vector 292  AllNodes.PHLNode[0].PressureSensor.Transducer  "Energy Consumptions"  ETV
vector 293  AllNodes.PHLNode[0].PressureSensor.Transducer  "Current use over time"  ETV
vector 294  AllNodes.PHLNode[0].LightSensor.SensingUnit  "Energy Consumptions"  ETV
vector 295  AllNodes.PHLNode[0].LightSensor.SensingUnit  "Current use over time"  ETV
vector 296  AllNodes.PHLNode[0].LightSensor.SignalConditioner  "Energy Consumptions"  ETV
vector 297  AllNodes.PHLNode[0].LightSensor.SignalConditioner  "Current use over time"  ETV
vector 298  AllNodes.PHLNode[0].LightSensor.SignalConverter  "Energy Consumptions"  ETV
vector 299  AllNodes.PHLNode[0].LightSensor.SignalConverter  "Current use over time"  ETV
vector 300  AllNodes.PHLNode[0].LightSensor.Transducer  "Energy Consumptions"  ETV
vector 301  AllNodes.PHLNode[0].LightSensor.Transducer  "Current use over time"  ETV
vector 302  AllNodes.PHLNode[0].Memory  "Energy Consumptions"  ETV
vector 303  AllNodes.PHLNode[0].Memory  "Current use over time"  ETV
vector 304  AllNodes.THLNode[0].TemperatureSensor.SensingUnit  "Energy Consumptions"  ETV
vector 305  AllNodes.THLNode[0].TemperatureSensor.SensingUnit  "Current use over time"  ETV
vector 306  AllNodes.THLNode[0].TemperatureSensor.SignalConditioner  "Energy Consumptions"  ETV
vector 307  AllNodes.THLNode[0].TemperatureSensor.SignalConditioner  "Current use over time"  ETV
vector 308  AllNodes.THLNode[0].TemperatureSensor.SignalConverter  "Energy Consumptions"  ETV
vector 309  AllNodes.THLNode[0].TemperatureSensor.SignalConverter  "Current use over time"  ETV
vector 310  AllNodes.THLNode[0].TemperatureSensor.Transducer  "Energy Consumptions"  ETV
vector 311  AllNodes.THLNode[0].TemperatureSensor.Transducer  "Current use over time"  ETV
vector 312  AllNodes.THLNode[0].HumiditySensor.SensingUnit  "Energy Consumptions"  ETV
vector 313  AllNodes.THLNode[0].HumiditySensor.SensingUnit  "Current use over time"  ETV
vector 314  AllNodes.THLNode[0].HumiditySensor.SignalConditioner  "Energy Consumptions"  ETV
vector 315  AllNodes.THLNode[0].HumiditySensor.SignalConditioner  "Current use over time"  ETV
vector 316  AllNodes.THLNode[0].HumiditySensor.SignalConverter  "Energy Consumptions"  ETV
vector 317  AllNodes.THLNode[0].HumiditySensor.SignalConverter  "Current use over time"  ETV
vector 318  AllNodes.THLNode[0].HumiditySensor.Transducer  "Energy Consumptions"  ETV
vector 319  AllNodes.THLNode[0].HumiditySensor.Transducer  "Current use over time"  ETV
vector 320  AllNodes.THLNode[0].LightSensor.SensingUnit  "Energy Consumptions"  ETV
vector 321  AllNodes.THLNode[0].LightSensor.SensingUnit  "Current use over time"  ETV
vector 322  AllNodes.THLNode[0].LightSensor.SignalConditioner  "Energy Consumptions"  ETV
vector 323  AllNodes.THLNode[0].LightSensor.SignalConditioner  "Current use over time"  ETV
vector 324  AllNodes.THLNode[0].LightSensor.SignalConverter  "Energy Consumptions"  ETV
vector 325  AllNodes.THLNode[0].LightSensor.SignalConverter  "Current use over time"  ETV
vector 326  AllNodes.THLNode[0].LightSensor.Transducer  "Energy Consumptions"  ETV
vector 327  AllNodes.THLNode[0].LightSensor.Transducer  "Current use over time"  ETV
vector 328  AllNodes.THLNode[0].Memory  "Energy Consumptions"  ETV
vector 329  AllNodes.THLNode[0].Memory  "Current use over time"  ETV
vector 330  AllNodes.TPLNode[0].TemperatureSensor.SensingUnit  "Energy Consumptions"  ETV
vector 331  AllNodes.TPLNode[0].TemperatureSensor.SensingUnit  "Current use over time"  ETV
vector 332  AllNodes.TPLNode[0].TemperatureSensor.SignalConditioner  "Energy Consumptions"  ETV
vector 333  AllNodes.TPLNode[0].TemperatureSensor.SignalConditioner  "Current use over time"  ETV
vector 334  AllNodes.TPLNode[0].TemperatureSensor.SignalConverter  "Energy Consumptions"  ETV
vector 335  AllNodes.TPLNode[0].TemperatureSensor.SignalConverter  "Current use over time"  ETV
vector 336  AllNodes.TPLNode[0].TemperatureSensor.Transducer  "Energy Consumptions"  ETV
vector 337  AllNodes.TPLNode[0].TemperatureSensor.Transducer  "Current use over time"  ETV
vector 338  AllNodes.TPLNode[0].PressureSensor.SensingUnit  "Energy Consumptions"  ETV
vector 339  AllNodes.TPLNode[0].PressureSensor.SensingUnit  "Current use over time"  ETV
vector 340  AllNodes.TPLNode[0].PressureSensor.SignalConditioner  "Energy Consumptions"  ETV
vector 341  AllNodes.TPLNode[0].PressureSensor.SignalConditioner  "Current use over time"  ETV
vector 342  AllNodes.TPLNode[0].PressureSensor.SignalConverter  "Energy Consumptions"  ETV
vector 343  AllNodes.TPLNode[0].PressureSensor.SignalConverter  "Current use over time"  ETV
vector 344  AllNodes.TPLNode[0].PressureSensor.Transducer  "Energy Consumptions"  ETV
vector 345  AllNodes.TPLNode[0].PressureSensor.Transducer  "Current use over time"  ETV
vector 346  AllNodes.TPLNode[0].LightSensor.SensingUnit  "Energy Consumptions"  ETV
vector 347  AllNodes.TPLNode[0].LightSensor.SensingUnit  "Current use over time"  ETV
vector 348  AllNodes.TPLNode[0].LightSensor.SignalConditioner  "Energy Consumptions"  ETV
vector 349  AllNodes.TPLNode[0].LightSensor.SignalConditioner  "Current use over time"  ETV
vector 350  AllNodes.TPLNode[0].LightSensor.SignalConverter  "Energy Consumptions"  ETV
vector 351  AllNodes.TPLNode[0].LightSensor.SignalConverter  "Current use over time"  ETV
vector 352  AllNodes.TPLNode[0].LightSensor.Transducer  "Energy Consumptions"  ETV
vector 353  AllNodes.TPLNode[0].LightSensor.Transducer  "Current use over time"  ETV
vector 354  AllNodes.TPLNode[0].Memory  "Energy Consumptions"  ETV
vector 355  AllNodes.TPLNode[0].Memory  "Current use over time"  ETV
vector 356  AllNodes.TPHNode[0].TemperatureSensor.SensingUnit  "Energy Consumptions"  ETV
vector 357  AllNodes.TPHNode[0].TemperatureSensor.SensingUnit  "Current use over time"  ETV
vector 358  AllNodes.TPHNode[0].TemperatureSensor.SignalConditioner  "Energy Consumptions"  ETV
vector 359  AllNodes.TPHNode[0].TemperatureSensor.SignalConditioner  "Current use over time"  ETV
vector 360  AllNodes.TPHNode[0].TemperatureSensor.SignalConverter  "Energy Consumptions"  ETV
vector 361  AllNodes.TPHNode[0].TemperatureSensor.SignalConverter  "Current use over time"  ETV
vector 362  AllNodes.TPHNode[0].TemperatureSensor.Transducer  "Energy Consumptions"  ETV
vector 363  AllNodes.TPHNode[0].TemperatureSensor.Transducer  "Current use over time"  ETV
vector 364  AllNodes.TPHNode[0].HumiditySensor.SensingUnit  "Energy Consumptions"  ETV
vector 365  AllNodes.TPHNode[0].HumiditySensor.SensingUnit  "Current use over time"  ETV
vector 366  AllNodes.TPHNode[0].HumiditySensor.SignalConditioner  "Energy Consumptions"  ETV
vector 367  AllNodes.TPHNode[0].HumiditySensor.SignalConditioner  "Current use over time"  ETV
vector 368  AllNodes.TPHNode[0].HumiditySensor.SignalConverter  "Energy Consumptions"  ETV
vector 369  AllNodes.TPHNode[0].HumiditySensor.SignalConverter  "Current use over time"  ETV
vector 370  AllNodes.TPHNode[0].HumiditySensor.Transducer  "Energy Consumptions"  ETV
vector 371  AllNodes.TPHNode[0].HumiditySensor.Transducer  "Current use over time"  ETV
vector 372  AllNodes.TPHNode[0].PressureSensor.SensingUnit  "Energy Consumptions"  ETV
vector 373  AllNodes.TPHNode[0].PressureSensor.SensingUnit  "Current use over time"  ETV
vector 374  AllNodes.TPHNode[0].PressureSensor.SignalConditioner  "Energy Consumptions"  ETV
vector 375  AllNodes.TPHNode[0].PressureSensor.SignalConditioner  "Current use over time"  ETV
vector 376  AllNodes.TPHNode[0].PressureSensor.SignalConverter  "Energy Consumptions"  ETV
vector 377  AllNodes.TPHNode[0].PressureSensor.SignalConverter  "Current use over time"  ETV
vector 378  AllNodes.TPHNode[0].PressureSensor.Transducer  "Energy Consumptions"  ETV
vector 379  AllNodes.TPHNode[0].PressureSensor.Transducer  "Current use over time"  ETV
vector 380  AllNodes.TPHNode[0].Memory  "Energy Consumptions"  ETV
vector 381  AllNodes.TPHNode[0].Memory  "Current use over time"  ETV
vector 382  AllNodes.TPHLNode[0].TemperatureSensor.SensingUnit  "Energy Consumptions"  ETV
vector 383  AllNodes.TPHLNode[0].TemperatureSensor.SensingUnit  "Current use over time"  ETV
vector 384  AllNodes.TPHLNode[0].TemperatureSensor.SignalConditioner  "Energy Consumptions"  ETV
vector 385  AllNodes.TPHLNode[0].TemperatureSensor.SignalConditioner  "Current use over time"  ETV
vector 386  AllNodes.TPHLNode[0].TemperatureSensor.SignalConverter  "Energy Consumptions"  ETV
vector 387  AllNodes.TPHLNode[0].TemperatureSensor.SignalConverter  "Current use over time"  ETV
vector 388  AllNodes.TPHLNode[0].TemperatureSensor.Transducer  "Energy Consumptions"  ETV
vector 389  AllNodes.TPHLNode[0].TemperatureSensor.Transducer  "Current use over time"  ETV
vector 390  AllNodes.TPHLNode[0].HumiditySensor.SensingUnit  "Energy Consumptions"  ETV
vector 391  AllNodes.TPHLNode[0].HumiditySensor.SensingUnit  "Current use over time"  ETV
vector 392  AllNodes.TPHLNode[0].HumiditySensor.SignalConditioner  "Energy Consumptions"  ETV
vector 393  AllNodes.TPHLNode[0].HumiditySensor.SignalConditioner  "Current use over time"  ETV
vector 394  AllNodes.TPHLNode[0].HumiditySensor.SignalConverter  "Energy Consumptions"  ETV
vector 395  AllNodes.TPHLNode[0].HumiditySensor.SignalConverter  "Current use over time"  ETV
vector 396  AllNodes.TPHLNode[0].HumiditySensor.Transducer  "Energy Consumptions"  ETV
vector 397  AllNodes.TPHLNode[0].HumiditySensor.Transducer  "Current use over time"  ETV
vector 398  AllNodes.TPHLNode[0].PressureSensor.SensingUnit  "Energy Consumptions"  ETV
vector 399  AllNodes.TPHLNode[0].PressureSensor.SensingUnit  "Current use over time"  ETV
vector 400  AllNodes.TPHLNode[0].PressureSensor.SignalConditioner  "Energy Consumptions"  ETV
vector 401  AllNodes.TPHLNode[0].PressureSensor.SignalConditioner  "Current use over time"  ETV
vector 402  AllNodes.TPHLNode[0].PressureSensor.SignalConverter  "Energy Consumptions"  ETV
vector 403  AllNodes.TPHLNode[0].PressureSensor.SignalConverter  "Current use over time"  ETV
vector 404  AllNodes.TPHLNode[0].PressureSensor.Transducer  "Energy Consumptions"  ETV
vector 405  AllNodes.TPHLNode[0].PressureSensor.Transducer  "Current use over time"  ETV
vector 406  AllNodes.TPHLNode[0].LightSensor.SensingUnit  "Energy Consumptions"  ETV
vector 407  AllNodes.TPHLNode[0].LightSensor.SensingUnit  "Current use over time"  ETV
vector 408  AllNodes.TPHLNode[0].LightSensor.SignalConditioner  "Energy Consumptions"  ETV
vector 409  AllNodes.TPHLNode[0].LightSensor.SignalConditioner  "Current use over time"  ETV