file 35383 1449503266                                           
version 2
run General-0-20151109-12:36:47-9438
attr configname General
attr datetime 20151109-12:36:47
attr experiment General
attr inifile omnetpp.ini
attr iterationvars ""
attr iterationvars2 $repetition=0
attr measurement ""
attr network AllNodes
attr processid 9438
attr repetition 0
attr replication #0
attr resultdir results
attr runnumber 0
attr seedset 0
vector 7  AllNodes.SensorNode[0].Processor  "power mode"  ETV
7	30427 16 0 0 0 0 2 0 0 0 0
vector 8  AllNodes.SensorNode[0].Processor  "Sensor Modules Status"  ETV
8	30443 8 0 0 0 0 1 0 0 0 0
vector 9  AllNodes.SensorNode[0].Processor  Voltage  ETV
9	30451 8 0 0 0 0 1 3 3 3 9
vector 10  AllNodes.SensorNode[0].Processor  residualRelative  ETV
10	30459 9 0 0 0 0 1 1 1 1 1
vector 11  AllNodes.SensorNode[0].Processor  residualAbs  ETV
11	30468 16 0 0 0 0 1 10800000 10800000 10800000 1.1664e+14
vector 19  AllNodes.TNode[0].Processor  "power mode"  ETV
19	30484 18 0 0 0 0 2 0 0 0 0
vector 20  AllNodes.TNode[0].Processor  "Sensor Modules Status"  ETV
20	30502 9 0 0 0 0 1 0 0 0 0
vector 21  AllNodes.TNode[0].Processor  Voltage  ETV
21	30511 9 0 0 0 0 1 3 3 3 9
vector 22  AllNodes.TNode[0].Processor  residualRelative  ETV
22	30520 9 0 0 0 0 1 1 1 1 1
vector 23  AllNodes.TNode[0].Processor  residualAbs  ETV
23	30529 16 0 0 0 0 1 10800000 10800000 10800000 1.1664e+14
vector 31  AllNodes.PNode[0].Processor  "power mode"  ETV
31	30545 18 0 0 0 0 2 0 0 0 0
vector 32  AllNodes.PNode[0].Processor  "Sensor Modules Status"  ETV
32	30563 9 0 0 0 0 1 0 0 0 0
vector 33  AllNodes.PNode[0].Processor  Voltage  ETV
33	30572 9 0 0 0 0 1 3 3 3 9
vector 34  AllNodes.PNode[0].Processor  residualRelative  ETV
34	30581 9 0 0 0 0 1 1 1 1 1
vector 35  AllNodes.PNode[0].Processor  residualAbs  ETV
35	30590 16 0 0 0 0 1 10800000 10800000 10800000 1.1664e+14
vector 43  AllNodes.HNode[0].Processor  "power mode"  ETV
43	30606 18 0 0 0 0 2 0 0 0 0
vector 44  AllNodes.HNode[0].Processor  "Sensor Modules Status"  ETV
44	30624 9 0 0 0 0 1 0 0 0 0
vector 45  AllNodes.HNode[0].Processor  Voltage  ETV
45	30633 9 0 0 0 0 1 3 3 3 9
vector 46  AllNodes.HNode[0].Processor  residualRelative  ETV
46	30642 9 0 0 0 0 1 1 1 1 1
vector 47  AllNodes.HNode[0].Processor  residualAbs  ETV
47	30651 16 0 0 0 0 1 10800000 10800000 10800000 1.1664e+14
vector 55  AllNodes.LNode[0].Processor  "power mode"  ETV
55	30667 18 0 0 0 0 2 0 0 0 0
vector 56  AllNodes.LNode[0].Processor  "Sensor Modules Status"  ETV
56	30685 9 0 0 0 0 1 0 0 0 0
vector 57  AllNodes.LNode[0].Processor  Voltage  ETV
57	30694 9 0 0 0 0 1 3 3 3 9
vector 58  AllNodes.LNode[0].Processor  residualRelative  ETV
58	30703 9 0 0 0 0 1 1 1 1 1
vector 59  AllNodes.LNode[0].Processor  residualAbs  ETV
59	30712 16 0 0 0 0 1 10800000 10800000 10800000 1.1664e+14
vector 67  AllNodes.TPNode[0].Processor  "power mode"  ETV
67	30728 18 0 0 0 0 2 0 0 0 0
vector 68  AllNodes.TPNode[0].Processor  "Sensor Modules Status"  ETV
68	30746 9 0 0 0 0 1 0 0 0 0
vector 69  AllNodes.TPNode[0].Processor  Voltage  ETV
69	30755 9 0 0 0 0 1 3 3 3 9
vector 70  AllNodes.TPNode[0].Processor  residualRelative  ETV
70	30764 9 0 0 0 0 1 1 1 1 1
vector 71  AllNodes.TPNode[0].Processor  residualAbs  ETV
71	30773 16 0 0 0 0 1 10800000 10800000 10800000 1.1664e+14
vector 79  AllNodes.THNode[0].Processor  "power mode"  ETV
79	30789 18 0 0 0 0 2 0 0 0 0
vector 80  AllNodes.THNode[0].Processor  "Sensor Modules Status"  ETV
80	30807 9 0 0 0 0 1 0 0 0 0
vector 81  AllNodes.THNode[0].Processor  Voltage  ETV
81	30816 9 0 0 0 0 1 3 3 3 9
vector 82  AllNodes.THNode[0].Processor  residualRelative  ETV
82	30825 9 0 0 0 0 1 1 1 1 1
vector 83  AllNodes.THNode[0].Processor  residualAbs  ETV
83	30834 16 0 0 0 0 1 10800000 10800000 10800000 1.1664e+14
vector 91  AllNodes.TLNode[0].Processor  "power mode"  ETV
91	30850 18 0 0 0 0 2 0 0 0 0
vector 92  AllNodes.TLNode[0].Processor  "Sensor Modules Status"  ETV
92	30868 9 0 0 0 0 1 0 0 0 0
vector 93  AllNodes.TLNode[0].Processor  Voltage  ETV
93	30877 9 0 0 0 0 1 3 3 3 9
vector 94  AllNodes.TLNode[0].Processor  residualRelative  ETV
94	30886 9 0 0 0 0 1 1 1 1 1
vector 95  AllNodes.TLNode[0].Processor  residualAbs  ETV
95	30895 16 0 0 0 0 1 10800000 10800000 10800000 1.1664e+14
vector 103  AllNodes.PHNode[0].Processor  "power mode"  ETV
103	30911 20 0 0 0 0 2 0 0 0 0
vector 104  AllNodes.PHNode[0].Processor  "Sensor Modules Status"  ETV
104	30931 10 0 0 0 0 1 0 0 0 0
vector 105  AllNodes.PHNode[0].Processor  Voltage  ETV
105	30941 10 0 0 0 0 1 3 3 3 9
vector 106  AllNodes.PHNode[0].Processor  residualRelative  ETV
106	30951 10 0 0 0 0 1 1 1 1 1
vector 107  AllNodes.PHNode[0].Processor  residualAbs  ETV
107	30961 17 0 0 0 0 1 10800000 10800000 10800000 1.1664e+14
vector 115  AllNodes.PLNode[0].Processor  "power mode"  ETV
115	30978 20 0 0 0 0 2 0 0 0 0
vector 116  AllNodes.PLNode[0].Processor  "Sensor Modules Status"  ETV
116	30998 10 0 0 0 0 1 0 0 0 0
vector 117  AllNodes.PLNode[0].Processor  Voltage  ETV
117	31008 10 0 0 0 0 1 3 3 3 9
vector 118  AllNodes.PLNode[0].Processor  residualRelative  ETV
118	31018 10 0 0 0 0 1 1 1 1 1
vector 119  AllNodes.PLNode[0].Processor  residualAbs  ETV
119	31028 17 0 0 0 0 1 10800000 10800000 10800000 1.1664e+14
vector 127  AllNodes.HLNode[0].Processor  "power mode"  ETV
127	31045 20 0 0 0 0 2 0 0 0 0
vector 128  AllNodes.HLNode[0].Processor  "Sensor Modules Status"  ETV
128	31065 10 0 0 0 0 1 0 0 0 0
vector 129  AllNodes.HLNode[0].Processor  Voltage  ETV
129	31075 10 0 0 0 0 1 3 3 3 9
vector 130  AllNodes.HLNode[0].Processor  residualRelative  ETV
130	31085 10 0 0 0 0 1 1 1 1 1
vector 131  AllNodes.HLNode[0].Processor  residualAbs  ETV
131	31095 17 0 0 0 0 1 10800000 10800000 10800000 1.1664e+14
vector 139  AllNodes.PHLNode[0].Processor  "power mode"  ETV
139	31112 20 0 0 0 0 2 0 0 0 0
vector 140  AllNodes.PHLNode[0].Processor  "Sensor Modules Status"  ETV
140	31132 10 0 0 0 0 1 0 0 0 0
vector 141  AllNodes.PHLNode[0].Processor  Voltage  ETV
141	31142 10 0 0 0 0 1 3 3 3 9
vector 142  AllNodes.PHLNode[0].Processor  residualRelative  ETV
142	31152 10 0 0 0 0 1 1 1 1 1
vector 143  AllNodes.PHLNode[0].Processor  residualAbs  ETV
143	31162 17 0 0 0 0 1 10800000 10800000 10800000 1.1664e+14
vector 151  AllNodes.THLNode[0].Processor  "power mode"  ETV
151	31179 20 0 0 0 0 2 0 0 0 0
vector 152  AllNodes.THLNode[0].Processor  "Sensor Modules Status"  ETV
152	31199 10 0 0 0 0 1 0 0 0 0
vector 153  AllNodes.THLNode[0].Processor  Voltage  ETV
153	31209 10 0 0 0 0 1 3 3 3 9
vector 154  AllNodes.THLNode[0].Processor  residualRelative  ETV
154	31219 10 0 0 0 0 1 1 1 1 1
vector 155  AllNodes.THLNode[0].Processor  residualAbs  ETV
155	31229 17 0 0 0 0 1 10800000 10800000 10800000 1.1664e+14
vector 163  AllNodes.TPLNode[0].Processor  "power mode"  ETV
163	31246 20 0 0 0 0 2 0 0 0 0
vector 164  AllNodes.TPLNode[0].Processor  "Sensor Modules Status"  ETV
164	31266 10 0 0 0 0 1 0 0 0 0
vector 165  AllNodes.TPLNode[0].Processor  Voltage  ETV
165	31276 10 0 0 0 0 1 3 3 3 9
vector 166  AllNodes.TPLNode[0].Processor  residualRelative  ETV
166	31286 10 0 0 0 0 1 1 1 1 1
vector 167  AllNodes.TPLNode[0].Processor  residualAbs  ETV
167	31296 17 0 0 0 0 1 10800000 10800000 10800000 1.1664e+14
vector 175  AllNodes.TPHNode[0].Processor  "power mode"  ETV
175	31313 20 0 0 0 0 2 0 0 0 0
vector 176  AllNodes.TPHNode[0].Processor  "Sensor Modules Status"  ETV
176	31333 10 0 0 0 0 1 0 0 0 0
vector 177  AllNodes.TPHNode[0].Processor  Voltage  ETV
177	31343 10 0 0 0 0 1 3 3 3 9
vector 178  AllNodes.TPHNode[0].Processor  residualRelative  ETV
178	31353 10 0 0 0 0 1 1 1 1 1
vector 179  AllNodes.TPHNode[0].Processor  residualAbs  ETV
179	31363 17 0 0 0 0 1 10800000 10800000 10800000 1.1664e+14
vector 187  AllNodes.TPHLNode[0].Processor  "power mode"  ETV
187	31380 20 0 0 0 0 2 0 0 0 0
vector 188  AllNodes.TPHLNode[0].Processor  "Sensor Modules Status"  ETV
188	31400 10 0 0 0 0 1 0 0 0 0
vector 189  AllNodes.TPHLNode[0].Processor  Voltage  ETV
189	31410 10 0 0 0 0 1 3 3 3 9
vector 190  AllNodes.TPHLNode[0].Processor  residualRelative  ETV
190	31420 10 0 0 0 0 1 1 1 1 1
vector 191  AllNodes.TPHLNode[0].Processor  residualAbs  ETV
191	31430 17 0 0 0 0 1 10800000 10800000 10800000 1.1664e+14
vector 192  AllNodes.SensorNode[0].Memory  "Energy Consumptions"  ETV
192	31447 12 0 0 0 0 1 100 100 100 10000
vector 193  AllNodes.SensorNode[0].Memory  "Current use over time"  ETV
193	31459 10 0 0 0 0 1 3 3 3 9
vector 194  AllNodes.TNode[0].TemperatureSensor.SensingUnit  "Energy Consumptions"  ETV
194	31469 36 0 0 0 0 3 100 100 300 30000
vector 195  AllNodes.TNode[0].TemperatureSensor.SensingUnit  "Current use over time"  ETV
195	31505 10 0 0 0 0 1 3 3 3 9
vector 196  AllNodes.TNode[0].TemperatureSensor.SignalConditioner  "Energy Consumptions"  ETV
196	31515 12 0 0 0 0 1 100 100 100 10000
vector 197  AllNodes.TNode[0].TemperatureSensor.SignalConditioner  "Current use over time"  ETV
197	31527 10 0 0 0 0 1 3 3 3 9
vector 198  AllNodes.TNode[0].TemperatureSensor.SignalConverter  "Energy Consumptions"  ETV
198	31537 12 0 0 0 0 1 100 100 100 10000
vector 199  AllNodes.TNode[0].TemperatureSensor.SignalConverter  "Current use over time"  ETV
199	31549 10 0 0 0 0 1 3 3 3 9
vector 200  AllNodes.TNode[0].TemperatureSensor.Transducer  "Energy Consumptions"  ETV
200	31559 12 0 0 0 0 1 100 100 100 10000
vector 201  AllNodes.TNode[0].TemperatureSensor.Transducer  "Current use over time"  ETV
201	31571 10 0 0 0 0 1 3 3 3 9
vector 202  AllNodes.TNode[0].Memory  "Energy Consumptions"  ETV
202	31581 12 0 0 0 0 1 100 100 100 10000
vector 203  AllNodes.TNode[0].Memory  "Current use over time"  ETV
203	31593 10 0 0 0 0 1 3 3 3 9
vector 204  AllNodes.PNode[0].PressureSensor.SensingUnit  "Energy Consumptions"  ETV
204	31603 36 0 0 0 0 3 100 100 300 30000
vector 205  AllNodes.PNode[0].PressureSensor.SensingUnit  "Current use over time"  ETV
205	31639 10 0 0 0 0 1 3 3 3 9
vector 206  AllNodes.PNode[0].PressureSensor.SignalConditioner  "Energy Consumptions"  ETV
206	31649 12 0 0 0 0 1 100 100 100 10000
vector 207  AllNodes.PNode[0].PressureSensor.SignalConditioner  "Current use over time"  ETV
207	31661 10 0 0 0 0 1 3 3 3 9
vector 208  AllNodes.PNode[0].PressureSensor.SignalConverter  "Energy Consumptions"  ETV
208	31671 12 0 0 0 0 1 100 100 100 10000
vector 209  AllNodes.PNode[0].PressureSensor.SignalConverter  "Current use over time"  ETV
209	31683 10 0 0 0 0 1 3 3 3 9
vector 210  AllNodes.PNode[0].PressureSensor.Transducer  "Energy Consumptions"  ETV
210	31693 12 0 0 0 0 1 100 100 100 10000
vector 211  AllNodes.PNode[0].PressureSensor.Transducer  "Current use over time"  ETV
211	31705 10 0 0 0 0 1 3 3 3 9
vector 212  AllNodes.PNode[0].Memory  "Energy Consumptions"  ETV
212	31715 12 0 0 0 0 1 100 100 100 10000
vector 213  AllNodes.PNode[0].Memory  "Current use over time"  ETV
213	31727 10 0 0 0 0 1 3 3 3 9
vector 214  AllNodes.HNode[0].HumiditySensor.SensingUnit  "Energy Consumptions"  ETV
214	31737 36 0 0 0 0 3 100 100 300 30000
vector 215  AllNodes.HNode[0].HumiditySensor.SensingUnit  "Current use over time"  ETV
215	31773 10 0 0 0 0 1 3 3 3 9
vector 216  AllNodes.HNode[0].HumiditySensor.SignalConditioner  "Energy Consumptions"  ETV
216	31783 12 0 0 0 0 1 100 100 100 10000
vector 217  AllNodes.HNode[0].HumiditySensor.SignalConditioner  "Current use over time"  ETV
217	31795 10 0 0 0 0 1 3 3 3 9
vector 218  AllNodes.HNode[0].HumiditySensor.SignalConverter  "Energy Consumptions"  ETV
218	31805 12 0 0 0 0 1 100 100 100 10000
vector 219  AllNodes.HNode[0].HumiditySensor.SignalConverter  "Current use over time"  ETV
219	31817 10 0 0 0 0 1 3 3 3 9
vector 220  AllNodes.HNode[0].HumiditySensor.Transducer  "Energy Consumptions"  ETV
220	31827 12 0 0 0 0 1 100 100 100 10000
vector 221  AllNodes.HNode[0].HumiditySensor.Transducer  "Current use over time"  ETV
221	31839 10 0 0 0 0 1 3 3 3 9
vector 222  AllNodes.HNode[0].Memory  "Energy Consumptions"  ETV
222	31849 12 0 0 0 0 1 100 100 100 10000
vector 223  AllNodes.HNode[0].Memory  "Current use over time"  ETV
223	31861 10 0 0 0 0 1 3 3 3 9
vector 224  AllNodes.LNode[0].LightSensor.SensingUnit  "Energy Consumptions"  ETV
224	31871 36 0 0 0 0 3 100 100 300 30000
vector 225  AllNodes.LNode[0].LightSensor.SensingUnit  "Current use over time"  ETV
225	31907 10 0 0 0 0 1 3 3 3 9
vector 226  AllNodes.LNode[0].LightSensor.SignalConditioner  "Energy Consumptions"  ETV
226	31917 12 0 0 0 0 1 100 100 100 10000
vector 227  AllNodes.LNode[0].LightSensor.SignalConditioner  "Current use over time"  ETV
227	31929 10 0 0 0 0 1 3 3 3 9
vector 228  AllNodes.LNode[0].LightSensor.SignalConverter  "Energy Consumptions"  ETV
228	31939 12 0 0 0 0 1 100 100 100 10000
vector 229  AllNodes.LNode[0].LightSensor.SignalConverter  "Current use over time"  ETV
229	31951 10 0 0 0 0 1 3 3 3 9
vector 230  AllNodes.LNode[0].LightSensor.Transducer  "Energy Consumptions"  ETV
230	31961 12 0 0 0 0 1 100 100 100 10000
vector 231  AllNodes.LNode[0].LightSensor.Transducer  "Current use over time"  ETV
231	31973 10 0 0 0 0 1 3 3 3 9
vector 232  AllNodes.LNode[0].Memory  "Energy Consumptions"  ETV
232	31983 12 0 0 0 0 1 100 100 100 10000
vector 233  AllNodes.LNode[0].Memory  "Current use over time"  ETV
233	31995 10 0 0 0 0 1 3 3 3 9
vector 234  AllNodes.TPNode[0].TemperatureSensor.SensingUnit  "Energy Consumptions"  ETV
234	32005 36 0 0 0 0 3 100 100 300 30000
vector 235  AllNodes.TPNode[0].TemperatureSensor.SensingUnit  "Current use over time"  ETV
235	32041 10 0 0 0 0 1 3 3 3 9
vector 236  AllNodes.TPNode[0].TemperatureSensor.SignalConditioner  "Energy Consumptions"  ETV
236	32051 12 0 0 0 0 1 100 100 100 10000
vector 237  AllNodes.TPNode[0].TemperatureSensor.SignalConditioner  "Current use over time"  ETV
237	32063 10 0 0 0 0 1 3 3 3 9
vector 238  AllNodes.TPNode[0].TemperatureSensor.SignalConverter  "Energy Consumptions"  ETV
238	32073 12 0 0 0 0 1 100 100 100 10000
vector 239  AllNodes.TPNode[0].TemperatureSensor.SignalConverter  "Current use over time"  ETV
239	32085 10 0 0 0 0 1 3 3 3 9
vector 240  AllNodes.TPNode[0].TemperatureSensor.Transducer  "Energy Consumptions"  ETV
240	32095 12 0 0 0 0 1 100 100 100 10000
vector 241  AllNodes.TPNode[0].TemperatureSensor.Transducer  "Current use over time"  ETV
241	32107 10 0 0 0 0 1 3 3 3 9
vector 242  AllNodes.TPNode[0].PressureSensor.SensingUnit  "Energy Consumptions"  ETV
242	32117 36 0 0 0 0 3 100 100 300 30000
vector 243  AllNodes.TPNode[0].PressureSensor.SensingUnit  "Current use over time"  ETV
243	32153 10 0 0 0 0 1 3 3 3 9
vector 244  AllNodes.TPNode[0].PressureSensor.SignalConditioner  "Energy Consumptions"  ETV
244	32163 12 0 0 0 0 1 100 100 100 10000
vector 245  AllNodes.TPNode[0].PressureSensor.SignalConditioner  "Current use over time"  ETV
245	32175 10 0 0 0 0 1 3 3 3 9
vector 246  AllNodes.TPNode[0].PressureSensor.SignalConverter  "Energy Consumptions"  ETV
246	32185 12 0 0 0 0 1 100 100 100 10000
vector 247  AllNodes.TPNode[0].PressureSensor.SignalConverter  "Current use over time"  ETV
247	32197 10 0 0 0 0 1 3 3 3 9
vector 248  AllNodes.TPNode[0].PressureSensor.Transducer  "Energy Consumptions"  ETV
248	32207 12 0 0 0 0 1 100 100 100 10000
vector 249  AllNodes.TPNode[0].PressureSensor.Transducer  "Current use over time"  ETV
249	32219 10 0 0 0 0 1 3 3 3 9
vector 250  AllNodes.TPNode[0].Memory  "Energy Consumptions"  ETV
250	32229 12 0 0 0 0 1 100 100 100 10000
vector 251  AllNodes.TPNode[0].Memory  "Current use over time"  ETV
251	32241 10 0 0 0 0 1 3 3 3 9
vector 252  AllNodes.THNode[0].TemperatureSensor.SensingUnit  "Energy Consumptions"  ETV
252	32251 36 0 0 0 0 3 100 100 300 30000
vector 253  AllNodes.THNode[0].TemperatureSensor.SensingUnit  "Current use over time"  ETV
253	32287 10 0 0 0 0 1 3 3 3 9
vector 254  AllNodes.THNode[0].TemperatureSensor.SignalConditioner  "Energy Consumptions"  ETV
254	32297 12 0 0 0 0 1 100 100 100 10000
vector 255  AllNodes.THNode[0].TemperatureSensor.SignalConditioner  "Current use over time"  ETV
255	32309 10 0 0 0 0 1 3 3 3 9
vector 256  AllNodes.THNode[0].TemperatureSensor.SignalConverter  "Energy Consumptions"  ETV
256	32319 12 0 0 0 0 1 100 100 100 10000
vector 257  AllNodes.THNode[0].TemperatureSensor.SignalConverter  "Current use over time"  ETV
257	32331 10 0 0 0 0 1 3 3 3 9
vector 258  AllNodes.THNode[0].TemperatureSensor.Transducer  "Energy Consumptions"  ETV
258	32341 12 0 0 0 0 1 100 100 100 10000
vector 259  AllNodes.THNode[0].TemperatureSensor.Transducer  "Current use over time"  ETV
259	32353 10 0 0 0 0 1 3 3 3 9
vector 260  AllNodes.THNode[0].HumiditySensor.SensingUnit  "Energy Consumptions"  ETV
260	32363 36 0 0 0 0 3 100 100 300 30000
vector 261  AllNodes.THNode[0].HumiditySensor.SensingUnit  "Current use over time"  ETV
261	32399 10 0 0 0 0 1 3 3 3 9
vector 262  AllNodes.THNode[0].HumiditySensor.SignalConditioner  "Energy Consumptions"  ETV
262	32409 12 0 0 0 0 1 100 100 100 10000
vector 263  AllNodes.THNode[0].HumiditySensor.SignalConditioner  "Current use over time"  ETV
263	32421 10 0 0 0 0 1 3 3 3 9
vector 264  AllNodes.THNode[0].HumiditySensor.SignalConverter  "Energy Consumptions"  ETV
264	32431 12 0 0 0 0 1 100 100 100 10000
vector 265  AllNodes.THNode[0].HumiditySensor.SignalConverter  "Current use over time"  ETV
265	32443 10 0 0 0 0 1 3 3 3 9
vector 266  AllNodes.THNode[0].HumiditySensor.Transducer  "Energy Consumptions"  ETV
266	32453 12 0 0 0 0 1 100 100 100 10000
vector 267  AllNodes.THNode[0].HumiditySensor.Transducer  "Current use over time"  ETV
267	32465 10 0 0 0 0 1 3 3 3 9
vector 268  AllNodes.THNode[0].Memory  "Energy Consumptions"  ETV
268	32475 12 0 0 0 0 1 100 100 100 10000
vector 269  AllNodes.THNode[0].Memory  "Current use over time"  ETV
269	32487 10 0 0 0 0 1 3 3 3 9
vector 270  AllNodes.TLNode[0].TemperatureSensor.SensingUnit  "Energy Consumptions"  ETV
270	32497 36 0 0 0 0 3 100 100 300 30000
vector 271  AllNodes.TLNode[0].TemperatureSensor.SensingUnit  "Current use over time"  ETV
271	32533 10 0 0 0 0 1 3 3 3 9
vector 272  AllNodes.TLNode[0].TemperatureSensor.SignalConditioner  "Energy Consumptions"  ETV
272	32543 12 0 0 0 0 1 100 100 100 10000
vector 273  AllNodes.TLNode[0].TemperatureSensor.SignalConditioner  "Current use over time"  ETV
273	32555 10 0 0 0 0 1 3 3 3 9
vector 274  AllNodes.TLNode[0].TemperatureSensor.SignalConverter  "Energy Consumptions"  ETV
274	32565 12 0 0 0 0 1 100 100 100 10000
vector 275  AllNodes.TLNode[0].TemperatureSensor.SignalConverter  "Current use over time"  ETV
275	32577 10 0 0 0 0 1 3 3 3 9
vector 276  AllNodes.TLNode[0].TemperatureSensor.Transducer  "Energy Consumptions"  ETV
276	32587 12 0 0 0 0 1 100 100 100 10000
vector 277  AllNodes.TLNode[0].TemperatureSensor.Transducer  "Current use over time"  ETV
277	32599 10 0 0 0 0 1 3 3 3 9
vector 278  AllNodes.TLNode[0].LightSensor.SensingUnit  "Energy Consumptions"  ETV
278	32609 36 0 0 0 0 3 100 100 300 30000
vector 279  AllNodes.TLNode[0].LightSensor.SensingUnit  "Current use over time"  ETV
279	32645 10 0 0 0 0 1 3 3 3 9
vector 280  AllNodes.TLNode[0].LightSensor.SignalConditioner  "Energy Consumptions"  ETV
280	32655 12 0 0 0 0 1 100 100 100 10000
vector 281  AllNodes.TLNode[0].LightSensor.SignalConditioner  "Current use over time"  ETV
281	32667 10 0 0 0 0 1 3 3 3 9
vector 282  AllNodes.TLNode[0].LightSensor.SignalConverter  "Energy Consumptions"  ETV
282	32677 12 0 0 0 0 1 100 100 100 10000
vector 283  AllNodes.TLNode[0].LightSensor.SignalConverter  "Current use over time"  ETV
283	32689 10 0 0 0 0 1 3 3 3 9
vector 284  AllNodes.TLNode[0].LightSensor.Transducer  "Energy Consumptions"  ETV
284	32699 12 0 0 0 0 1 100 100 100 10000
vector 285  AllNodes.TLNode[0].LightSensor.Transducer  "Current use over time"  ETV
285	32711 10 0 0 0 0 1 3 3 3 9
vector 286  AllNodes.TLNode[0].Memory  "Energy Consumptions"  ETV
286	32721 12 0 0 0 0 1 100 100 100 10000
vector 287  AllNodes.TLNode[0].Memory  "Current use over time"  ETV
287	32733 10 0 0 0 0 1 3 3 3 9
vector 288  AllNodes.PHNode[0].HumiditySensor.SensingUnit  "Energy Consumptions"  ETV
288	32743 36 0 0 0 0 3 100 100 300 30000
vector 289  AllNodes.PHNode[0].HumiditySensor.SensingUnit  "Current use over time"  ETV
289	32779 10 0 0 0 0 1 3 3 3 9
vector 290  AllNodes.PHNode[0].HumiditySensor.SignalConditioner  "Energy Consumptions"  ETV
290	32789 12 0 0 0 0 1 100 100 100 10000
vector 291  AllNodes.PHNode[0].HumiditySensor.SignalConditioner  "Current use over time"  ETV
291	32801 10 0 0 0 0 1 3 3 3 9
vector 292  AllNodes.PHNode[0].HumiditySensor.SignalConverter  "Energy Consumptions"  ETV
292	32811 12 0 0 0 0 1 100 100 100 10000
vector 293  AllNodes.PHNode[0].HumiditySensor.SignalConverter  "Current use over time"  ETV
293	32823 10 0 0 0 0 1 3 3 3 9
vector 294  AllNodes.PHNode[0].HumiditySensor.Transducer  "Energy Consumptions"  ETV
294	32833 12 0 0 0 0 1 100 100 100 10000
vector 295  AllNodes.PHNode[0].HumiditySensor.Transducer  "Current use over time"  ETV
295	32845 10 0 0 0 0 1 3 3 3 9
vector 296  AllNodes.PHNode[0].PressureSensor.SensingUnit  "Energy Consumptions"  ETV
296	32855 36 0 0 0 0 3 100 100 300 30000
vector 297  AllNodes.PHNode[0].PressureSensor.SensingUnit  "Current use over time"  ETV
297	32891 10 0 0 0 0 1 3 3 3 9
vector 298  AllNodes.PHNode[0].PressureSensor.SignalConditioner  "Energy Consumptions"  ETV
298	32901 12 0 0 0 0 1 100 100 100 10000
vector 299  AllNodes.PHNode[0].PressureSensor.SignalConditioner  "Current use over time"  ETV
299	32913 10 0 0 0 0 1 3 3 3 9
vector 300  AllNodes.PHNode[0].PressureSensor.SignalConverter  "Energy Consumptions"  ETV
300	32923 12 0 0 0 0 1 100 100 100 10000
vector 301  AllNodes.PHNode[0].PressureSensor.SignalConverter  "Current use over time"  ETV
301	32935 10 0 0 0 0 1 3 3 3 9
vector 302  AllNodes.PHNode[0].PressureSensor.Transducer  "Energy Consumptions"  ETV
302	32945 12 0 0 0 0 1 100 100 100 10000
vector 303  AllNodes.PHNode[0].PressureSensor.Transducer  "Current use over time"  ETV
303	32957 10 0 0 0 0 1 3 3 3 9
vector 304  AllNodes.PHNode[0].Memory  "Energy Consumptions"  ETV
304	32967 12 0 0 0 0 1 100 100 100 10000
vector 305  AllNodes.PHNode[0].Memory  "Current use over time"  ETV
305	32979 10 0 0 0 0 1 3 3 3 9
vector 306  AllNodes.PLNode[0].PressureSensor.SensingUnit  "Energy Consumptions"  ETV
306	32989 36 0 0 0 0 3 100 100 300 30000
vector 307  AllNodes.PLNode[0].PressureSensor.SensingUnit  "Current use over time"  ETV
307	33025 10 0 0 0 0 1 3 3 3 9
vector 308  AllNodes.PLNode[0].PressureSensor.SignalConditioner  "Energy Consumptions"  ETV
308	33035 12 0 0 0 0 1 100 100 100 10000
vector 309  AllNodes.PLNode[0].PressureSensor.SignalConditioner  "Current use over time"  ETV
309	33047 10 0 0 0 0 1 3 3 3 9
vector 310  AllNodes.PLNode[0].PressureSensor.SignalConverter  "Energy Consumptions"  ETV
310	33057 12 0 0 0 0 1 100 100 100 10000
vector 311  AllNodes.PLNode[0].PressureSensor.SignalConverter  "Current use over time"  ETV
311	33069 10 0 0 0 0 1 3 3 3 9
vector 312  AllNodes.PLNode[0].PressureSensor.Transducer  "Energy Consumptions"  ETV
312	33079 12 0 0 0 0 1 100 100 100 10000
vector 313  AllNodes.PLNode[0].PressureSensor.Transducer  "Current use over time"  ETV
313	33091 10 0 0 0 0 1 3 3 3 9
vector 314  AllNodes.PLNode[0].LightSensor.SensingUnit  "Energy Consumptions"  ETV
314	33101 36 0 0 0 0 3 100 100 300 30000
vector 315  AllNodes.PLNode[0].LightSensor.SensingUnit  "Current use over time"  ETV
315	33137 10 0 0 0 0 1 3 3 3 9
vector 316  AllNodes.PLNode[0].LightSensor.SignalConditioner  "Energy Consumptions"  ETV
316	33147 12 0 0 0 0 1 100 100 100 10000
vector 317  AllNodes.PLNode[0].LightSensor.SignalConditioner  "Current use over time"  ETV
317	33159 10 0 0 0 0 1 3 3 3 9
vector 318  AllNodes.PLNode[0].LightSensor.SignalConverter  "Energy Consumptions"  ETV
318	33169 12 0 0 0 0 1 100 100 100 10000
vector 319  AllNodes.PLNode[0].LightSensor.SignalConverter  "Current use over time"  ETV
319	33181 10 0 0 0 0 1 3 3 3 9
vector 320  AllNodes.PLNode[0].LightSensor.Transducer  "Energy Consumptions"  ETV
320	33191 12 0 0 0 0 1 100 100 100 10000
vector 321  AllNodes.PLNode[0].LightSensor.Transducer  "Current use over time"  ETV
321	33203 10 0 0 0 0 1 3 3 3 9
vector 322  AllNodes.PLNode[0].Memory  "Energy Consumptions"  ETV
322	33213 12 0 0 0 0 1 100 100 100 10000
vector 323  AllNodes.PLNode[0].Memory  "Current use over time"  ETV
323	33225 10 0 0 0 0 1 3 3 3 9
vector 324  AllNodes.HLNode[0].HumiditySensor.SensingUnit  "Energy Consumptions"  ETV
324	33235 36 0 0 0 0 3 100 100 300 30000
vector 325  AllNodes.HLNode[0].HumiditySensor.SensingUnit  "Current use over time"  ETV
325	33271 10 0 0 0 0 1 3 3 3 9
vector 326  AllNodes.HLNode[0].HumiditySensor.SignalConditioner  "Energy Consumptions"  ETV
326	33281 12 0 0 0 0 1 100 100 100 10000
vector 327  AllNodes.HLNode[0].HumiditySensor.SignalConditioner  "Current use over time"  ETV
327	33293 10 0 0 0 0 1 3 3 3 9
vector 328  AllNodes.HLNode[0].HumiditySensor.SignalConverter  "Energy Consumptions"  ETV
328	33303 12 0 0 0 0 1 100 100 100 10000
vector 329  AllNodes.HLNode[0].HumiditySensor.SignalConverter  "Current use over time"  ETV
329	33315 10 0 0 0 0 1 3 3 3 9
vector 330  AllNodes.HLNode[0].HumiditySensor.Transducer  "Energy Consumptions"  ETV
330	33325 12 0 0 0 0 1 100 100 100 10000
vector 331  AllNodes.HLNode[0].HumiditySensor.Transducer  "Current use over time"  ETV
331	33337 10 0 0 0 0 1 3 3 3 9
vector 332  AllNodes.HLNode[0].LightSensor.SensingUnit  "Energy Consumptions"  ETV
332	33347 36 0 0 0 0 3 100 100 300 30000
vector 333  AllNodes.HLNode[0].LightSensor.SensingUnit  "Current use over time"  ETV
333	33383 10 0 0 0 0 1 3 3 3 9
vector 334  AllNodes.HLNode[0].LightSensor.SignalConditioner  "Energy Consumptions"  ETV
334	33393 12 0 0 0 0 1 100 100 100 10000
vector 335  AllNodes.HLNode[0].LightSensor.SignalConditioner  "Current use over time"  ETV
335	33405 10 0 0 0 0 1 3 3 3 9
vector 336  AllNodes.HLNode[0].LightSensor.SignalConverter  "Energy Consumptions"  ETV
336	33415 12 0 0 0 0 1 100 100 100 10000
vector 337  AllNodes.HLNode[0].LightSensor.SignalConverter  "Current use over time"  ETV
337	33427 10 0 0 0 0 1 3 3 3 9
vector 338  AllNodes.HLNode[0].LightSensor.Transducer  "Energy Consumptions"  ETV
338	33437 12 0 0 0 0 1 100 100 100 10000
vector 339  AllNodes.HLNode[0].LightSensor.Transducer  "Current use over time"  ETV
339	33449 10 0 0 0 0 1 3 3 3 9
vector 340  AllNodes.HLNode[0].Memory  "Energy Consumptions"  ETV
340	33459 12 0 0 0 0 1 100 100 100 10000
vector 341  AllNodes.HLNode[0].Memory  "Current use over time"  ETV
341	33471 10 0 0 0 0 1 3 3 3 9
vector 342  AllNodes.PHLNode[0].HumiditySensor.SensingUnit  "Energy Consumptions"  ETV
342	33481 36 0 0 0 0 3 100 100 300 30000
vector 343  AllNodes.PHLNode[0].HumiditySensor.SensingUnit  "Current use over time"  ETV
343	33517 10 0 0 0 0 1 3 3 3 9
vector 344  AllNodes.PHLNode[0].HumiditySensor.SignalConditioner  "Energy Consumptions"  ETV
344	33527 12 0 0 0 0 1 100 100 100 10000
vector 345  AllNodes.PHLNode[0].HumiditySensor.SignalConditioner  "Current use over time"  ETV
345	33539 10 0 0 0 0 1 3 3 3 9
vector 346  AllNodes.PHLNode[0].HumiditySensor.SignalConverter  "Energy Consumptions"  ETV
346	33549 12 0 0 0 0 1 100 100 100 10000
vector 347  AllNodes.PHLNode[0].HumiditySensor.SignalConverter  "Current use over time"  ETV
347	33561 10 0 0 0 0 1 3 3 3 9
vector 348  AllNodes.PHLNode[0].HumiditySensor.Transducer  "Energy Consumptions"  ETV
348	33571 12 0 0 0 0 1 100 100 100 10000
vector 349  AllNodes.PHLNode[0].HumiditySensor.Transducer  "Current use over time"  ETV
349	33583 10 0 0 0 0 1 3 3 3 9
vector 350  AllNodes.PHLNode[0].PressureSensor.SensingUnit  "Energy Consumptions"  ETV
350	33593 36 0 0 0 0 3 100 100 300 30000
vector 351  AllNodes.PHLNode[0].PressureSensor.SensingUnit  "Current use over time"  ETV
351	33629 10 0 0 0 0 1 3 3 3 9
vector 352  AllNodes.PHLNode[0].PressureSensor.SignalConditioner  "Energy Consumptions"  ETV
352	33639 12 0 0 0 0 1 100 100 100 10000
vector 353  AllNodes.PHLNode[0].PressureSensor.SignalConditioner  "Current use over time"  ETV
353	33651 10 0 0 0 0 1 3 3 3 9
vector 354  AllNodes.PHLNode[0].PressureSensor.SignalConverter  "Energy Consumptions"  ETV
354	33661 12 0 0 0 0 1 100 100 100 10000
vector 355  AllNodes.PHLNode[0].PressureSensor.SignalConverter  "Current use over time"  ETV
355	33673 10 0 0 0 0 1 3 3 3 9
vector 356  AllNodes.PHLNode[0].PressureSensor.Transducer  "Energy Consumptions"  ETV
356	33683 12 0 0 0 0 1 100 100 100 10000
vector 357  AllNodes.PHLNode[0].PressureSensor.Transducer  "Current use over time"  ETV
357	33695 10 0 0 0 0 1 3 3 3 9
vector 358  AllNodes.PHLNode[0].LightSensor.SensingUnit  "Energy Consumptions"  ETV
358	33705 36 0 0 0 0 3 100 100 300 30000
vector 359  AllNodes.PHLNode[0].LightSensor.SensingUnit  "Current use over time"  ETV
359	33741 10 0 0 0 0 1 3 3 3 9
vector 360  AllNodes.PHLNode[0].LightSensor.SignalConditioner  "Energy Consumptions"  ETV
360	33751 12 0 0 0 0 1 100 100 100 10000
vector 361  AllNodes.PHLNode[0].LightSensor.SignalConditioner  "Current use over time"  ETV
361	33763 10 0 0 0 0 1 3 3 3 9
vector 362  AllNodes.PHLNode[0].LightSensor.SignalConverter  "Energy Consumptions"  ETV
362	33773 12 0 0 0 0 1 100 100 100 10000
vector 363  AllNodes.PHLNode[0].LightSensor.SignalConverter  "Current use over time"  ETV
363	33785 10 0 0 0 0 1 3 3 3 9
vector 364  AllNodes.PHLNode[0].LightSensor.Transducer  "Energy Consumptions"  ETV
364	33795 12 0 0 0 0 1 100 100 100 10000
vector 365  AllNodes.PHLNode[0].LightSensor.Transducer  "Current use over time"  ETV
365	33807 10 0 0 0 0 1 3 3 3 9
vector 366  AllNodes.PHLNode[0].Memory  "Energy Consumptions"  ETV
366	33817 12 0 0 0 0 1 100 100 100 10000
vector 367  AllNodes.PHLNode[0].Memory  "Current use over time"  ETV
367	33829 10 0 0 0 0 1 3 3 3 9
vector 368  AllNodes.THLNode[0].TemperatureSensor.SensingUnit  "Energy Consumptions"  ETV
368	33839 36 0 0 0 0 3 100 100 300 30000
vector 369  AllNodes.THLNode[0].TemperatureSensor.SensingUnit  "Current use over time"  ETV
369	33875 10 0 0 0 0 1 3 3 3 9