version 2
run General-0-20150513-11:38:23-5455
attr configname General
attr datetime 20150513-11:38:23
attr experiment General
attr inifile omnetpp.ini
attr iterationvars ""
attr iterationvars2 $repetition=0
attr measurement ""
attr network AllNodes
attr processid 5455
attr repetition 0
attr replication #0
attr resultdir results
attr runnumber 0
attr seedset 0

vector 3  AllNodes.SensorNode[0].Processor  "power mode"  ETV
vector 4  AllNodes.SensorNode[0].Processor  Voltage  ETV
vector 5  AllNodes.SensorNode[0].Processor  residualRelative  ETV
vector 6  AllNodes.SensorNode[0].Processor  residualAbs  ETV
vector 10  AllNodes.TNode[0].Processor  "power mode"  ETV
vector 11  AllNodes.TNode[0].Processor  Voltage  ETV
vector 12  AllNodes.TNode[0].Processor  residualRelative  ETV
vector 13  AllNodes.TNode[0].Processor  residualAbs  ETV
vector 17  AllNodes.PNode[0].Processor  "power mode"  ETV
vector 18  AllNodes.PNode[0].Processor  Voltage  ETV
vector 19  AllNodes.PNode[0].Processor  residualRelative  ETV
vector 20  AllNodes.PNode[0].Processor  residualAbs  ETV
vector 24  AllNodes.HNode[0].Processor  "power mode"  ETV
vector 25  AllNodes.HNode[0].Processor  Voltage  ETV
vector 26  AllNodes.HNode[0].Processor  residualRelative  ETV
vector 27  AllNodes.HNode[0].Processor  residualAbs  ETV
vector 31  AllNodes.LNode[0].Processor  "power mode"  ETV
vector 32  AllNodes.LNode[0].Processor  Voltage  ETV
vector 33  AllNodes.LNode[0].Processor  residualRelative  ETV
vector 34  AllNodes.LNode[0].Processor  residualAbs  ETV
vector 38  AllNodes.TPNode[0].Processor  "power mode"  ETV
vector 39  AllNodes.TPNode[0].Processor  Voltage  ETV
vector 40  AllNodes.TPNode[0].Processor  residualRelative  ETV
vector 41  AllNodes.TPNode[0].Processor  residualAbs  ETV
vector 45  AllNodes.THNode[0].Processor  "power mode"  ETV
vector 46  AllNodes.THNode[0].Processor  Voltage  ETV
vector 47  AllNodes.THNode[0].Processor  residualRelative  ETV
vector 48  AllNodes.THNode[0].Processor  residualAbs  ETV
vector 52  AllNodes.TLNode[0].Processor  "power mode"  ETV
vector 53  AllNodes.TLNode[0].Processor  Voltage  ETV
vector 54  AllNodes.TLNode[0].Processor  residualRelative  ETV
vector 55  AllNodes.TLNode[0].Processor  residualAbs  ETV
vector 59  AllNodes.PHNode[0].Processor  "power mode"  ETV
vector 60  AllNodes.PHNode[0].Processor  Voltage  ETV
vector 61  AllNodes.PHNode[0].Processor  residualRelative  ETV
vector 62  AllNodes.PHNode[0].Processor  residualAbs  ETV
vector 66  AllNodes.PLNode[0].Processor  "power mode"  ETV
vector 67  AllNodes.PLNode[0].Processor  Voltage  ETV
vector 68  AllNodes.PLNode[0].Processor  residualRelative  ETV
vector 69  AllNodes.PLNode[0].Processor  residualAbs  ETV
vector 73  AllNodes.HLNode[0].Processor  "power mode"  ETV
vector 74  AllNodes.HLNode[0].Processor  Voltage  ETV
vector 75  AllNodes.HLNode[0].Processor  residualRelative  ETV
vector 76  AllNodes.HLNode[0].Processor  residualAbs  ETV
vector 80  AllNodes.PHLNode[0].Processor  "power mode"  ETV
vector 81  AllNodes.PHLNode[0].Processor  Voltage  ETV
vector 82  AllNodes.PHLNode[0].Processor  residualRelative  ETV
vector 83  AllNodes.PHLNode[0].Processor  residualAbs  ETV
vector 87  AllNodes.THLNode[0].Processor  "power mode"  ETV
vector 88  AllNodes.THLNode[0].Processor  Voltage  ETV
vector 89  AllNodes.THLNode[0].Processor  residualRelative  ETV
vector 90  AllNodes.THLNode[0].Processor  residualAbs  ETV
vector 94  AllNodes.TPLNode[0].Processor  "power mode"  ETV
vector 95  AllNodes.TPLNode[0].Processor  Voltage  ETV
vector 96  AllNodes.TPLNode[0].Processor  residualRelative  ETV
vector 97  AllNodes.TPLNode[0].Processor  residualAbs  ETV
vector 101  AllNodes.TPHNode[0].Processor  "power mode"  ETV
vector 102  AllNodes.TPHNode[0].Processor  Voltage  ETV
vector 103  AllNodes.TPHNode[0].Processor  residualRelative  ETV
vector 104  AllNodes.TPHNode[0].Processor  residualAbs  ETV
vector 108  AllNodes.TPHLNode[0].Processor  "power mode"  ETV
vector 109  AllNodes.TPHLNode[0].Processor  Voltage  ETV
vector 110  AllNodes.TPHLNode[0].Processor  residualRelative  ETV
vector 111  AllNodes.TPHLNode[0].Processor  residualAbs  ETV
3	0	0	0
3	0	0	0
3	8491	2500	1
3	14090	12500	2
3	14362	13000	0
3	14362	13000	0
3	15738	15500	1
3	21305	25500	2
3	21609	26000	0
3	21609	26000	0
3	22937	28500	1
3	28536	38500	2
3	28808	39000	0
3	28808	39000	0
3	30391	41500	1
3	35990	51500	2
3	36262	52000	0
3	36262	52000	0
3	37622	54500	1
3	43189	64500	2
3	43509	65000	0
3	43509	65000	0
3	44837	67500	1
3	50436	77500	2
3	50708	78000	0
3	50708	78000	0
3	52291	80500	1
3	57890	90500	2
3	58162	91000	0
3	58162	91000	0
3	59522	93500	1
3	65089	103500	2
3	65393	104000	0
3	65393	104000	0
3	66737	106500	1
3	72336	116500	2
3	72608	117000	0
3	72608	117000	0
3	73968	119500	1
3	79567	129500	2
3	79870	130000	0
3	79870	130000	0
3	81422	132500	1
3	86989	142500	2
3	87293	143000	0
3	87293	143000	0
3	88625	145500	1
3	94029	155500	2
3	94292	156000	0
3	94292	156000	0
3	95609	158500	1
3	101013	168500	2
3	101276	169000	0
3	101276	169000	0
3	102762	171500	1
3	107383	181500	2
3	107637	182000	0
3	107637	182000	0
3	108755	184500	1
3	113403	194500	2
3	113641	195000	0
3	113641	195000	0
3	114786	197500	1
3	119434	207500	2
3	119661	208000	0
3	119661	208000	0
3	120863	210500	1
3	124392	220500	2
3	124586	221000	0
3	124586	221000	0
3	125452	223500	1
3	129002	233500	2
3	129175	234000	0
3	129175	234000	0
3	130067	236500	1
3	133617	246500	2
3	133790	247000	0
3	133790	247000	0
3	134677	249500	1
3	138206	259500	2
3	138409	260000	0
3	138409	260000	0
3	139299	262500	1
3	142849	272500	2
3	143022	273000	0
3	143022	273000	0
3	143774	275500	1
3	146616	285500	2
3	146753	286000	0
3	146753	286000	0
3	147468	288500	1
3	150293	298500	2
3	150447	299000	0
3	150447	299000	0
3	151146	301500	1
3	153988	311500	2
3	154125	312000	0
3	154125	312000	0
3	154840	314500	1
3	157682	324500	2
3	157820	325000	0
3	157820	325000	0
3	158535	327500	1
3	161360	337500	2
3	161514	338000	0
3	161514	338000	0
3	162213	340500	1
3	165055	350500	2
3	165192	351000	0
3	165192	351000	0
3	165907	353500	1
3	168749	363500	2
3	168886	364000	0
3	168886	364000	0
3	169602	366500	1
3	172427	376500	2
3	172581	377000	0
3	172581	377000	0
4	0	0	3
4	8491	2500	3
4	8491	2500	3
4	9851	5000	3
4	9851	5000	3
4	9851	5000	3
4	12538	10000	3
4	12538	10000	3
4	12538	10000	3
4	14090	12500	3
4	14090	12500	3
4	14362	13000	3
4	14362	13000	3
4	15434	15000	3
4	15434	15000	3
4	15434	15000	3
4	15738	15500	3
4	15738	15500	3
4	18169	20000	3
4	18169	20000	3
4	18169	20000	3
4	21033	25000	3
4	21033	25000	3
4	21033	25000	3
4	21305	25500	3
4	21305	25500	3
4	21609	26000	3
4	21609	26000	3
4	22937	28500	3
4	22937	28500	3
4	23768	30000	3
4	23768	30000	3
4	23768	30000	3
4	26664	35000	3
4	26664	35000	3
4	26664	35000	3
4	28536	38500	3
4	28536	38500	3
4	28808	39000	3
4	28808	39000	3
4	29383	40000	3
4	29383	40000	3
4	29383	40000	3
4	30391	41500	3
4	30391	41500	3
4	32263	45000	3
4	32263	45000	3
4	32263	45000	3
4	34982	50000	3
4	34982	50000	3
4	34982	50000	3
4	35990	51500	3
4	35990	51500	3
4	36262	52000	3
4	36262	52000	3
4	37622	54500	3
4	37622	54500	3
4	37894	55000	3
4	37894	55000	3
4	37894	55000	3
4	40581	60000	3
4	40581	60000	3
4	40581	60000	3
4	43189	64500	3
4	43189	64500	3
4	43493	65000	3
4	43493	65000	3
4	43493	65000	3
4	43509	65000	3
4	43509	65000	3
4	44837	67500	3
4	44837	67500	3
4	46212	70000	3
4	46212	70000	3
4	46212	70000	3
4	49076	75000	3
4	49076	75000	3
4	49076	75000	3
4	50436	77500	3
4	50436	77500	3
4	50708	78000	3
4	50708	78000	3
4	51827	80000	3
4	51827	80000	3
4	51827	80000	3
4	52291	80500	3
4	52291	80500	3
4	54707	85000	3
4	54707	85000	3
4	54707	85000	3
4	57394	90000	3
4	57394	90000	3
4	57394	90000	3
4	57890	90500	3
4	57890	90500	3
4	58162	91000	3
4	58162	91000	3
4	59522	93500	3
4	59522	93500	3
4	60338	95000	3
4	60338	95000	3
4	60338	95000	3
4	63025	100000	3
4	63025	100000	3
4	63025	100000	3
4	65089	103500	3
4	65089	103500	3
4	65393	104000	3
4	65393	104000	3
4	65921	105000	3
4	65921	105000	3
4	65921	105000	3
4	66737	106500	3
4	66737	106500	3
4	68656	110000	3
4	68656	110000	3
4	68656	110000	3
4	71520	115000	3
4	71520	115000	3
4	71520	115000	3
4	72336	116500	3
4	72336	116500	3
4	72608	117000	3
4	72608	117000	3
4	73968	119500	3
4	73968	119500	3
4	74255	120000	3
4	74255	120000	3
4	74255	120000	3
4	77151	125000	3
4	77151	125000	3
4	77151	125000	3
4	79567	129500	3
4	79567	129500	3
4	79854	130000	3
4	79854	130000	3
4	79854	130000	3
4	79870	130000	3
4	79870	130000	3
4	81422	132500	3
4	81422	132500	3
4	82750	135000	3
4	82750	135000	3
4	82750	135000	3
4	85469	140000	3
4	85469	140000	3
4	85469	140000	3
4	86989	142500	3
4	86989	142500	3
4	87293	143000	3
4	87293	143000	3
4	88362	145000	3
4	88362	145000	3
4	88362	145000	3
4	88625	145500	3
4	88625	145500	3
4	90979	150000	3
4	90979	150000	3
4	90979	150000	3
4	93766	155000	3
4	93766	155000	3
4	93766	155000	3
4	94029	155500	3
4	94029	155500	3
4	94292	156000	3
4	94292	156000	3
4	95609	158500	3
4	95609	158500	3
4	96413	160000	3
4	96413	160000	3
4	96413	160000	3
4	99169	165000	3
4	99169	165000	3
4	99169	165000	3
4	101013	168500	3
4	101013	168500	3
4	101276	169000	3
4	101276	169000	3
4	101832	170000	3
4	101832	170000	3
4	101832	170000	3
4	102762	171500	3
4	102762	171500	3
4	104339	175000	3
4	104339	175000	3
4	104339	175000	3
4	106601	180000	3
4	106601	180000	3
4	106601	180000	3
4	107383	181500	3
4	107383	181500	3
4	107637	182000	3
4	107637	182000	3
4	108755	184500	3
4	108755	184500	3
4	109009	185000	3
4	109009	185000	3
4	109009	185000	3
4	111271	190000	3
4	111271	190000	3
4	111271	190000	3
4	113403	194500	3
4	113403	194500	3
4	113630	195000	3
4	113630	195000	3
4	113630	195000	3
4	113641	195000	3
4	113641	195000	3
4	114786	197500	3
4	114786	197500	3
4	115941	200000	3
4	115941	200000	3
4	115941	200000	3
4	118289	205000	3
4	118289	205000	3
4	118289	205000	3
4	119434	207500	3
4	119434	207500	3
4	119661	208000	3
4	119661	208000	3
4	120573	210000	3
4	120573	210000	3
4	120573	210000	3
4	120863	210500	3
4	120863	210500	3
4	122443	215000	3
4	122443	215000	3
4	122443	215000	3
4	124195	220000	3
4	124195	220000	3
4	124195	220000	3
4	124392	220500	3
4	124392	220500	3
4	124586	221000	3
4	124586	221000	3
4	125452	223500	3
4	125452	223500	3
4	125982	225000	3
4	125982	225000	3
4	125982	225000	3
4	127755	230000	3
4	127755	230000	3
4	127755	230000	3
4	129002	233500	3
4	129002	233500	3
4	129175	234000	3
4	129175	234000	3
4	129537	235000	3
4	129537	235000	3
4	129537	235000	3
4	130067	236500	3
4	130067	236500	3
4	131294	240000	3
4	131294	240000	3
4	131294	240000	3
4	133087	245000	3
4	133087	245000	3
4	133087	245000	3
4	133617	246500	3
4	133617	246500	3
4	133790	247000	3
4	133790	247000	3
4	134677	249500	3
4	134677	249500	3
4	134854	250000	3
4	134854	250000	3
4	134854	250000	3
4	136626	255000	3
4	136626	255000	3
4	136626	255000	3
4	138206	259500	3
4	138206	259500	3
4	138404	260000	3
4	138404	260000	3
4	138404	260000	3
4	138409	260000	3
4	138409	260000	3
4	139299	262500	3
4	139299	262500	3
4	140186	265000	3
4	140186	265000	3
4	140186	265000	3
4	141938	270000	3
4	141938	270000	3
4	141938	270000	3
4	142849	272500	3
4	142849	272500	3
4	143022	273000	3
4	143022	273000	3
4	143637	275000	3
4	143637	275000	3
4	143637	275000	3
4	143774	275500	3
4	143774	275500	3
4	145050	280000	3
4	145050	280000	3
4	145050	280000	3
4	146462	285000	3
4	146462	285000	3
4	146462	285000	3
4	146616	285500	3
4	146616	285500	3
4	146753	286000	3
4	146753	286000	3
4	147468	288500	3
4	147468	288500	3
4	147894	290000	3
4	147894	290000	3
4	147894	290000	3
4	149306	295000	3
4	149306	295000	3
4	149306	295000	3
4	150293	298500	3
4	150293	298500	3
4	150447	299000	3
4	150447	299000	3
4	150720	300000	3
4	150720	300000	3
4	150720	300000	3
4	151146	301500	3
4	151146	301500	3
4	152150	305000	3
4	152150	305000	3
4	152150	305000	3
4	153562	310000	3
4	153562	310000	3
4	153562	310000	3
4	153988	311500	3
4	153988	311500	3
4	154125	312000	3
4	154125	312000	3
4	154840	314500	3
4	154840	314500	3
4	154977	315000	3
4	154977	315000	3
4	154977	315000	3
4	156406	320000	3
4	156406	320000	3
4	156406	320000	3
4	157682	324500	3
4	157682	324500	3
4	157819	325000	3
4	157819	325000	3
4	157819	325000	3
4	157820	325000	3
4	157820	325000	3
4	158535	327500	3
4	158535	327500	3
4	159233	330000	3
4	159233	330000	3
4	159233	330000	3
4	160662	335000	3
4	160662	335000	3
4	160662	335000	3
4	161360	337500	3
4	161360	337500	3
4	161514	338000	3
4	161514	338000	3
4	162076	340000	3
4	162076	340000	3
4	162076	340000	3
4	162213	340500	3
4	162213	340500	3
4	163489	345000	3
4	163489	345000	3
4	163489	345000	3
4	164918	350000	3
4	164918	350000	3
4	164918	350000	3
4	165055	350500	3
4	165055	350500	3
4	165192	351000	3
4	165192	351000	3
4	165907	353500	3
4	165907	353500	3
4	166333	355000	3
4	166333	355000	3
4	166333	355000	3
4	167745	360000	3
4	167745	360000	3
4	167745	360000	3
4	168749	363500	3
4	168749	363500	3
4	168886	364000	3
4	168886	364000	3
4	169176	365000	3
4	169176	365000	3
4	169176	365000	3
4	169602	366500	3
4	169602	366500	3
4	170589	370000	3
4	170589	370000	3
4	170589	370000	3
4	172001	375000	3
4	172001	375000	3
4	172001	375000	3
4	172427	376500	3
4	172427	376500	3
4	172581	377000	3
4	172581	377000	3
5	0	0	1
5	8491	2500	0.98402777777778
5	8491	2500	0.98401388888889
5	9851	5000	0.98311833333333
5	9851	5000	0.98311833333333
5	9851	5000	0.98309722222222
5	12538	10000	0.98130611111111
5	12538	10000	0.98130611111111
5	12538	10000	0.98127777777778
5	14090	12500	0.980375
5	14090	12500	0.98035185185185
5	14362	13000	0.9660462962963
5	14362	13000	0.96602777777778
5	15434	15000	0.95363333333333
5	15434	15000	0.95363333333333
5	15434	15000	0.95323148148148
5	15738	15500	0.95003703703704
5	15738	15500	0.95002314814815
5	18169	20000	0.94840537037037
5	18169	20000	0.94840537037037
5	18169	20000	0.94838425925926
5	21033	25000	0.94659314814815
5	21033	25000	0.94659314814815
5	21033	25000	0.94656481481481
5	21305	25500	0.94638425925926
5	21305	25500	0.94636111111111
5	21609	26000	0.93205555555556
5	21609	26000	0.93203703703704
5	22937	28500	0.91606481481481
5	22937	28500	0.91605092592593
5	23768	30000	0.91553092592593
5	23768	30000	0.91553092592593
5	23768	30000	0.91549537037037
5	26664	35000	0.91369703703704
5	26664	35000	0.91369703703704
5	26664	35000	0.91367592592593
5	28536	38500	0.91241203703704
5	28536	38500	0.91238888888889
5	28808	39000	0.89808333333333
5	28808	39000	0.89806481481481
5	29383	40000	0.89193148148148
5	29383	40000	0.89193148148148
5	29383	40000	0.89165740740741
5	30391	41500	0.88207407407407
5	30391	41500	0.88206018518519
5	32263	45000	0.88081796296296
5	32263	45000	0.88081796296296
5	32263	45000	0.88078240740741
5	34982	50000	0.87898407407407
5	34982	50000	0.87898407407407
5	34982	50000	0.87896296296296
5	35990	51500	0.8784212962963
5	35990	51500	0.87839814814815
5	36262	52000	0.86409259259259
5	36262	52000	0.86407407407407
5	37622	54500	0.84810185185185
5	37622	54500	0.84808796296296
5	37894	55000	0.84792185185185
5	37894	55000	0.84792185185185
5	37894	55000	0.84789351851852
5	40581	60000	0.84610962962963
5	40581	60000	0.84610962962963
5	40581	60000	0.84607407407407
5	43189	64500	0.84444907407407
5	43189	64500	0.84442592592593
5	43493	65000	0.83069259259259
5	43493	65000	0.83069259259259
5	43493	65000	0.83009722222222
5	43509	65000	0.83009722222222
5	43509	65000	0.8300787037037
5	44837	67500	0.81410648148148
5	44837	67500	0.81409259259259
5	46212	70000	0.81320425925926
5	46212	70000	0.81320425925926
5	46212	70000	0.81317592592593
5	49076	75000	0.81139203703704
5	49076	75000	0.81139203703704
5	49076	75000	0.81135648148148
5	50436	77500	0.8104537037037
5	50436	77500	0.81043055555556
5	50708	78000	0.796125
5	50708	78000	0.79610648148148
5	51827	80000	0.78345648148148
5	51827	80000	0.78345648148148
5	51827	80000	0.78331018518519
5	52291	80500	0.78011574074074
5	52291	80500	0.78010185185185
5	54707	85000	0.7784912962963
5	54707	85000	0.7784912962963
5	54707	85000	0.77846296296296
5	57394	90000	0.77667907407407
5	57394	90000	0.77667907407407
5	57394	90000	0.77664351851852
5	57890	90500	0.77646296296296
5	57890	90500	0.77643981481481
5	58162	91000	0.76213425925926
5	58162	91000	0.76211574074074
5	59522	93500	0.74614351851852
5	59522	93500	0.74612962962963
5	60338	95000	0.74559518518519
5	60338	95000	0.74559518518519
5	60338	95000	0.74557407407407
5	63025	100000	0.74378296296296
5	63025	100000	0.74378296296296
5	63025	100000	0.74375462962963
5	65089	103500	0.74249074074074
5	65089	103500	0.74246759259259
5	65393	104000	0.72816203703704
5	65393	104000	0.72814351851852
5	65921	105000	0.72213796296296
5	65921	105000	0.72213796296296
5	65921	105000	0.72173611111111
5	66737	106500	0.71215277777778
5	66737	106500	0.71213888888889
5	68656	110000	0.71088222222222
5	68656	110000	0.71088222222222
5	68656	110000	0.71086111111111
5	71520	115000	0.70907
5	71520	115000	0.70907
5	71520	115000	0.70904166666667
5	72336	116500	0.7085
5	72336	116500	0.70847685185185
5	72608	117000	0.6941712962963
5	72608	117000	0.69415277777778
5	73968	119500	0.67818055555556
5	73968	119500	0.67816666666667
5	74255	120000	0.67800777777778
5	74255	120000	0.67800777777778
5	74255	120000	0.67797222222222
5	77151	125000	0.67617388888889
5	77151	125000	0.67617388888889
5	77151	125000	0.67615277777778
5	79567	129500	0.67452777777778
5	79567	129500	0.67450462962963
5	79854	130000	0.66134351851852
5	79854	130000	0.66134351851852
5	79854	130000	0.66017592592593
5	79870	130000	0.66017592592593
5	79870	130000	0.66015740740741
5	81422	132500	0.64418518518519
5	81422	132500	0.6441712962963
5	82750	135000	0.64329018518519
5	82750	135000	0.64329018518519
5	82750	135000	0.64325462962963
5	85469	140000	0.6414562962963
5	85469	140000	0.6414562962963
5	85469	140000	0.64143518518519
5	86989	142500	0.64053240740741
5	86989	142500	0.64050925925926
5	87293	143000	0.6262037037037
5	87293	143000	0.62618518518519
5	88362	145000	0.61366296296296
5	88362	145000	0.61366296296296
5	88362	145000	0.61338888888889
5	88625	145500	0.61019444444444
5	88625	145500	0.61018055555556
5	90979	150000	0.60857722222222
5	90979	150000	0.60857722222222
5	90979	150000	0.60854166666667
5	93766	155000	0.60674333333333
5	93766	155000	0.60674333333333
5	93766	155000	0.60672222222222
5	94029	155500	0.60654166666667
5	94029	155500	0.60651851851852
5	94292	156000	0.59221296296296
5	94292	156000	0.59219444444444
5	95609	158500	0.57622222222222
5	95609	158500	0.57620833333333
5	96413	160000	0.57568111111111
5	96413	160000	0.57568111111111
5	96413	160000	0.57565277777778
5	99169	165000	0.57386888888889
5	99169	165000	0.57386888888889
5	99169	165000	0.57383333333333
5	101013	168500	0.57256944444444
5	101013	168500	0.5725462962963
5	101276	169000	0.55824074074074
5	101276	169000	0.55822222222222
5	101832	170000	0.55196111111111
5	101832	170000	0.55196111111111
5	101832	170000	0.55181481481481
5	102762	171500	0.54223148148148
5	102762	171500	0.54221759259259
5	104339	175000	0.54096814814815
5	104339	175000	0.54096814814815
5	104339	175000	0.54093981481481
5	106601	180000	0.53915592592593
5	106601	180000	0.53915592592593
5	106601	180000	0.53912037037037
5	107383	181500	0.5385787037037
5	107383	181500	0.53855555555556
5	107637	182000	0.52425
5	107637	182000	0.52423148148148
5	108755	184500	0.50825925925926
5	108755	184500	0.50824537037037
5	109009	185000	0.50807203703704
5	109009	185000	0.50807203703704
5	109009	185000	0.50805092592593
5	111271	190000	0.50625981481481
5	111271	190000	0.50625981481481
5	111271	190000	0.50623148148148
5	113403	194500	0.50460648148148
5	113403	194500	0.50458333333333
5	113630	195000	0.49199444444444
5	113630	195000	0.49199444444444
5	113630	195000	0.49025462962963
5	113641	195000	0.49025462962963
5	113641	195000	0.49023611111111
5	114786	197500	0.47426388888889
5	114786	197500	0.47425
5	115941	200000	0.47335444444444
5	115941	200000	0.47335444444444
5	115941	200000	0.47333333333333
5	118289	205000	0.47154222222222
5	118289	205000	0.47154222222222
5	118289	205000	0.47151388888889
5	119434	207500	0.47061111111111
5	119434	207500	0.47058796296296
5	119661	208000	0.45628240740741
5	119661	208000	0.45626388888889
5	120573	210000	0.44386944444444
5	120573	210000	0.44386944444444
5	120573	210000	0.44346759259259
5	120863	210500	0.44027314814815
5	120863	210500	0.44025925925926
5	122443	215000	0.43864148148148
5	122443	215000	0.43864148148148
5	122443	215000	0.43862037037037
5	124195	220000	0.43682925925926
5	124195	220000	0.43682925925926
5	124195	220000	0.43680092592593
5	124392	220500	0.43662037037037
5	124392	220500	0.43659722222222
5	124586	221000	0.42229166666667
5	124586	221000	0.42227314814815
5	125452	223500	0.40630092592593
5	125452	223500	0.40628703703704
5	125982	225000	0.40576703703704
5	125982	225000	0.40576703703704
5	125982	225000	0.40573148148148
5	127755	230000	0.40393314814815
5	127755	230000	0.40393314814815
5	127755	230000	0.40391203703704
5	129002	233500	0.40264814814815
5	129002	233500	0.402625
5	129175	234000	0.38831944444444
5	129175	234000	0.38830092592593
5	129537	235000	0.38216759259259
5	129537	235000	0.38216759259259
5	129537	235000	0.38189351851852
5	130067	236500	0.37231018518519
5	130067	236500	0.3722962962963
5	131294	240000	0.37105407407407
5	131294	240000	0.37105407407407
5	131294	240000	0.37101851851852
5	133087	245000	0.36922018518519
5	133087	245000	0.36922018518519
5	133087	245000	0.36919907407407
5	133617	246500	0.36865740740741
5	133617	246500	0.36863425925926
5	133790	247000	0.3543287037037
5	133790	247000	0.35431018518519
5	134677	249500	0.33833796296296
5	134677	249500	0.33832407407407
5	134854	250000	0.33815796296296
5	134854	250000	0.33815796296296
5	134854	250000	0.33812962962963
5	136626	255000	0.33634574074074
5	136626	255000	0.33634574074074
5	136626	255000	0.33631018518519
5	138206	259500	0.33468518518519
5	138206	259500	0.33466203703704
5	138404	260000	0.3209287037037
5	138404	260000	0.3209287037037
5	138404	260000	0.32033333333333
5	138409	260000	0.32033333333333
5	138409	260000	0.32031481481481
5	139299	262500	0.30434259259259
5	139299	262500	0.3043287037037
5	140186	265000	0.30344037037037
5	140186	265000	0.30344037037037
5	140186	265000	0.30341203703704
5	141938	270000	0.30162814814815
5	141938	270000	0.30162814814815
5	141938	270000	0.30159259259259
5	142849	272500	0.30068981481481
5	142849	272500	0.30066666666667
5	143022	273000	0.28636111111111
5	143022	273000	0.28634259259259
5	143637	275000	0.27369259259259
5	143637	275000	0.27369259259259
5	143637	275000	0.2735462962963
5	143774	275500	0.27035185185185
5	143774	275500	0.27033796296296
5	145050	280000	0.26872740740741
5	145050	280000	0.26872740740741
5	145050	280000	0.26869907407407
5	146462	285000	0.26691518518519
5	146462	285000	0.26691518518519
5	146462	285000	0.26687962962963
5	146616	285500	0.26669907407407
5	146616	285500	0.26667592592593
5	146753	286000	0.25237037037037
5	146753	286000	0.25235185185185
5	147468	288500	0.23637962962963
5	147468	288500	0.23636574074074
5	147894	290000	0.2358312962963
5	147894	290000	0.2358312962963
5	147894	290000	0.23581018518519
5	149306	295000	0.23401907407407
5	149306	295000	0.23401907407407
5	149306	295000	0.23399074074074
5	150293	298500	0.23272685185185
5	150293	298500	0.2327037037037
5	150447	299000	0.21839814814815
5	150447	299000	0.21837962962963
5	150720	300000	0.21237407407407
5	150720	300000	0.21237407407407
5	150720	300000	0.21197222222222
5	151146	301500	0.20238888888889
5	151146	301500	0.202375
5	152150	305000	0.20111833333333
5	152150	305000	0.20111833333333
5	152150	305000	0.20109722222222
5	153562	310000	0.19930611111111
5	153562	310000	0.19930611111111
5	153562	310000	0.19927777777778
5	153988	311500	0.19873611111111
5	153988	311500	0.19871296296296
5	154125	312000	0.18440740740741
5	154125	312000	0.18438888888889
5	154840	314500	0.16841666666667
5	154840	314500	0.16840277777778
5	154977	315000	0.16824388888889
5	154977	315000	0.16824388888889
5	154977	315000	0.16820833333333
5	156406	320000	0.16641
5	156406	320000	0.16641
5	156406	320000	0.16638888888889
5	157682	324500	0.16476388888889
5	157682	324500	0.16474074074074
5	157819	325000	0.15157962962963
5	157819	325000	0.15157962962963
5	157819	325000	0.15041203703704
5	157820	325000	0.15041203703704
5	157820	325000	0.15039351851852
5	158535	327500	0.1344212962963
5	158535	327500	0.13440740740741
5	159233	330000	0.1335262962963
5	159233	330000	0.1335262962963
5	159233	330000	0.13349074074074
5	160662	335000	0.13169240740741
5	160662	335000	0.13169240740741
5	160662	335000	0.1316712962963
5	161360	337500	0.13076851851852
5	161360	337500	0.13074537037037
5	161514	338000	0.11643981481481
5	161514	338000	0.1164212962963
5	162076	340000	0.10389907407407
5	162076	340000	0.10389907407407
5	162076	340000	0.103625
5	162213	340500	0.10043055555556
5	162213	340500	0.10041666666667
5	163489	345000	0.098813333333333
5	163489	345000	0.098813333333333
5	163489	345000	0.098777777777778
5	164918	350000	0.096979444444444
5	164918	350000	0.096979444444444
5	164918	350000	0.096958333333333
5	165055	350500	0.096777777777778
5	165055	350500	0.09675462962963
5	165192	351000	0.082449074074074
5	165192	351000	0.082430555555556
5	165907	353500	0.066458333333333
5	165907	353500	0.066444444444444
5	166333	355000	0.065917222222222
5	166333	355000	0.065917222222222
5	166333	355000	0.065888888888889
5	167745	360000	0.064105
5	167745	360000	0.064105
5	167745	360000	0.064069444444444
5	168749	363500	0.062805555555556
5	168749	363500	0.062782407407407
5	168886	364000	0.048476851851852
5	168886	364000	0.048458333333333
5	169176	365000	0.042197222222222
5	169176	365000	0.042197222222222
5	169176	365000	0.042050925925926
5	169602	366500	0.032467592592593
5	169602	366500	0.032453703703704
5	170589	370000	0.031204259259259
5	170589	370000	0.031204259259259
5	170589	370000	0.031175925925926
5	172001	375000	0.029392037037037
5	172001	375000	0.029392037037037
5	172001	375000	0.029356481481481
5	172427	376500	0.028814814814815
5	172427	376500	0.028791666666667
5	172581	377000	0.014486111111111
5	172581	377000	0.014467592592593
6	0	0	10800000
6	8491	2500	10627500
6	8491	2500	10627350
6	9851	5000	10617678
6	9851	5000	10617678
6	9851	5000	10617450
6	12538	10000	10598106
6	12538	10000	10598106
6	12538	10000	10597800
6	14090	12500	10588050
6	14090	12500	10587800
6	14362	13000	10433300
6	14362	13000	10433100
6	15434	15000	10299240
6	15434	15000	10299240
6	15434	15000	10294900
6	15738	15500	10260400
6	15738	15500	10260250
6	18169	20000	10242778
6	18169	20000	10242778
6	18169	20000	10242550
6	21033	25000	10223206
6	21033	25000	10223206
6	21033	25000	10222900
6	21305	25500	10220950
6	21305	25500	10220700
6	21609	26000	10066200
6	21609	26000	10066000
6	22937	28500	9893500
6	22937	28500	9893350
6	23768	30000	9887734
6	23768	30000	9887734
6	23768	30000	9887350
6	26664	35000	9867928
6	26664	35000	9867928
6	26664	35000	9867700
6	28536	38500	9854050
6	28536	38500	9853800
6	28808	39000	9699300
6	28808	39000	9699100
6	29383	40000	9632860
6	29383	40000	9632860
6	29383	40000	9629900
6	30391	41500	9526400
6	30391	41500	9526250
6	32263	45000	9512834
6	32263	45000	9512834
6	32263	45000	9512450
6	34982	50000	9493028
6	34982	50000	9493028
6	34982	50000	9492800
6	35990	51500	9486950
6	35990	51500	9486700
6	36262	52000	9332200
6	36262	52000	9332000
6	37622	54500	9159500
6	37622	54500	9159350
6	37894	55000	9157556
6	37894	55000	9157556
6	37894	55000	9157250
6	40581	60000	9137984
6	40581	60000	9137984
6	40581	60000	9137600
6	43189	64500	9120050
6	43189	64500	9119800
6	43493	65000	8971480
6	43493	65000	8971480
6	43493	65000	8965050
6	43509	65000	8965050
6	43509	65000	8964850
6	44837	67500	8792350
6	44837	67500	8792200
6	46212	70000	8782606
6	46212	70000	8782606
6	46212	70000	8782300
6	49076	75000	8763034
6	49076	75000	8763034
6	49076	75000	8762650
6	50436	77500	8752900
6	50436	77500	8752650
6	50708	78000	8598150
6	50708	78000	8597950
6	51827	80000	8461330
6	51827	80000	8461330
6	51827	80000	8459750
6	52291	80500	8425250
6	52291	80500	8425100
6	54707	85000	8407706
6	54707	85000	8407706
6	54707	85000	8407400
6	57394	90000	8388134
6	57394	90000	8388134
6	57394	90000	8387750
6	57890	90500	8385800
6	57890	90500	8385550
6	58162	91000	8231050
6	58162	91000	8230850
6	59522	93500	8058350
6	59522	93500	8058200
6	60338	95000	8052428
6	60338	95000	8052428
6	60338	95000	8052200
6	63025	100000	8032856
6	63025	100000	8032856
6	63025	100000	8032550
6	65089	103500	8018900
6	65089	103500	8018650
6	65393	104000	7864150
6	65393	104000	7863950
6	65921	105000	7799090
6	65921	105000	7799090
6	65921	105000	7794750
6	66737	106500	7691250
6	66737	106500	7691100
6	68656	110000	7677528
6	68656	110000	7677528
6	68656	110000	7677300
6	71520	115000	7657956
6	71520	115000	7657956
6	71520	115000	7657650
6	72336	116500	7651800
6	72336	116500	7651550
6	72608	117000	7497050
6	72608	117000	7496850
6	73968	119500	7324350
6	73968	119500	7324200
6	74255	120000	7322484
6	74255	120000	7322484
6	74255	120000	7322100
6	77151	125000	7302678
6	77151	125000	7302678
6	77151	125000	7302450
6	79567	129500	7284900
6	79567	129500	7284650
6	79854	130000	7142510
6	79854	130000	7142510
6	79854	130000	7129900
6	79870	130000	7129900
6	79870	130000	7129700
6	81422	132500	6957200
6	81422	132500	6957050
6	82750	135000	6947534
6	82750	135000	6947534
6	82750	135000	6947150
6	85469	140000	6927728
6	85469	140000	6927728
6	85469	140000	6927500
6	86989	142500	6917750
6	86989	142500	6917500
6	87293	143000	6763000
6	87293	143000	6762800
6	88362	145000	6627560
6	88362	145000	6627560
6	88362	145000	6624600
6	88625	145500	6590100
6	88625	145500	6589950
6	90979	150000	6572634
6	90979	150000	6572634
6	90979	150000	6572250
6	93766	155000	6552828
6	93766	155000	6552828
6	93766	155000	6552600
6	94029	155500	6550650
6	94029	155500	6550400
6	94292	156000	6395900
6	94292	156000	6395700
6	95609	158500	6223200
6	95609	158500	6223050
6	96413	160000	6217356
6	96413	160000	6217356
6	96413	160000	6217050
6	99169	165000	6197784
6	99169	165000	6197784
6	99169	165000	6197400
6	101013	168500	6183750
6	101013	168500	6183500
6	101276	169000	6029000
6	101276	169000	6028800
6	101832	170000	5961180
6	101832	170000	5961180
6	101832	170000	5959600
6	102762	171500	5856100
6	102762	171500	5855950
6	104339	175000	5842456