version 2
run General-0-20150512-15:21:19-11629
attr configname General
attr datetime 20150512-15:21:19
attr experiment General
attr inifile omnetpp.ini
attr iterationvars ""
attr iterationvars2 $repetition=0
attr measurement ""
attr network AllNodes
attr processid 11629
attr repetition 0
attr replication #0
attr resultdir results
attr runnumber 0
attr seedset 0

vector 3  AllNodes.SensorNode[0].Processor  Voltage  ETV
vector 4  AllNodes.SensorNode[0].Processor  residualRelative  ETV
vector 5  AllNodes.SensorNode[0].Processor  residualAbs  ETV
vector 9  AllNodes.TNode[0].Processor  Voltage  ETV
vector 10  AllNodes.TNode[0].Processor  residualRelative  ETV
vector 11  AllNodes.TNode[0].Processor  residualAbs  ETV
vector 15  AllNodes.PNode[0].Processor  Voltage  ETV
vector 16  AllNodes.PNode[0].Processor  residualRelative  ETV
vector 17  AllNodes.PNode[0].Processor  residualAbs  ETV
vector 21  AllNodes.HNode[0].Processor  Voltage  ETV
vector 22  AllNodes.HNode[0].Processor  residualRelative  ETV
vector 23  AllNodes.HNode[0].Processor  residualAbs  ETV
vector 27  AllNodes.LNode[0].Processor  Voltage  ETV
vector 28  AllNodes.LNode[0].Processor  residualRelative  ETV
vector 29  AllNodes.LNode[0].Processor  residualAbs  ETV
vector 33  AllNodes.TPNode[0].Processor  Voltage  ETV
vector 34  AllNodes.TPNode[0].Processor  residualRelative  ETV
vector 35  AllNodes.TPNode[0].Processor  residualAbs  ETV
vector 39  AllNodes.THNode[0].Processor  Voltage  ETV
vector 40  AllNodes.THNode[0].Processor  residualRelative  ETV
vector 41  AllNodes.THNode[0].Processor  residualAbs  ETV
vector 45  AllNodes.TLNode[0].Processor  Voltage  ETV
vector 46  AllNodes.TLNode[0].Processor  residualRelative  ETV
vector 47  AllNodes.TLNode[0].Processor  residualAbs  ETV
vector 51  AllNodes.PHNode[0].Processor  Voltage  ETV
vector 52  AllNodes.PHNode[0].Processor  residualRelative  ETV
vector 53  AllNodes.PHNode[0].Processor  residualAbs  ETV
vector 57  AllNodes.PLNode[0].Processor  Voltage  ETV
vector 58  AllNodes.PLNode[0].Processor  residualRelative  ETV
vector 59  AllNodes.PLNode[0].Processor  residualAbs  ETV
vector 63  AllNodes.HLNode[0].Processor  Voltage  ETV
vector 64  AllNodes.HLNode[0].Processor  residualRelative  ETV
vector 65  AllNodes.HLNode[0].Processor  residualAbs  ETV
vector 69  AllNodes.PHLNode[0].Processor  Voltage  ETV
vector 70  AllNodes.PHLNode[0].Processor  residualRelative  ETV
vector 71  AllNodes.PHLNode[0].Processor  residualAbs  ETV
vector 75  AllNodes.THLNode[0].Processor  Voltage  ETV
vector 76  AllNodes.THLNode[0].Processor  residualRelative  ETV
vector 77  AllNodes.THLNode[0].Processor  residualAbs  ETV
vector 81  AllNodes.TPLNode[0].Processor  Voltage  ETV
vector 82  AllNodes.TPLNode[0].Processor  residualRelative  ETV
vector 83  AllNodes.TPLNode[0].Processor  residualAbs  ETV
vector 87  AllNodes.TPHNode[0].Processor  Voltage  ETV
vector 88  AllNodes.TPHNode[0].Processor  residualRelative  ETV
vector 89  AllNodes.TPHNode[0].Processor  residualAbs  ETV
vector 93  AllNodes.TPHLNode[0].Processor  Voltage  ETV
vector 94  AllNodes.TPHLNode[0].Processor  residualRelative  ETV
vector 95  AllNodes.TPHLNode[0].Processor  residualAbs  ETV
3	0	0	3
3	5587	2500	3
3	5587	2500	3
3	6947	5000	3
3	6947	5000	3
3	6947	5000	3
3	9634	10000	3
3	9634	10000	3
3	9634	10000	3
3	11186	12500	3
3	11186	12500	3
3	11458	13000	3
3	11458	13000	3
3	12530	15000	3
3	12530	15000	3
3	12530	15000	3
3	12834	15500	3
3	12834	15500	3
3	15265	20000	3
3	15265	20000	3
3	15265	20000	3
3	18129	25000	3
3	18129	25000	3
3	18129	25000	3
3	18401	25500	3
3	18401	25500	3
3	18705	26000	3
3	18705	26000	3
3	20033	28500	3
3	20033	28500	3
3	20864	30000	3
3	20864	30000	3
3	20864	30000	3
3	23760	35000	3
3	23760	35000	3
3	23760	35000	3
3	25632	38500	3
3	25632	38500	3
3	25904	39000	3
3	25904	39000	3
3	26479	40000	3
3	26479	40000	3
3	26479	40000	3
3	27487	41500	3
3	27487	41500	3
3	29359	45000	3
3	29359	45000	3
3	29359	45000	3
3	32078	50000	3
3	32078	50000	3
3	32078	50000	3
3	33086	51500	3
3	33086	51500	3
3	33358	52000	3
3	33358	52000	3
3	34718	54500	3
3	34718	54500	3
3	34990	55000	3
3	34990	55000	3
3	34990	55000	3
3	37677	60000	3
3	37677	60000	3
3	37677	60000	3
4	0	0	1
4	5587	2500	0.98402777777778
4	5587	2500	0.98401388888889
4	6947	5000	0.98311833333333
4	6947	5000	0.98311833333333
4	6947	5000	0.98309722222222
4	9634	10000	0.98130611111111
4	9634	10000	0.98130611111111
4	9634	10000	0.98127777777778
4	11186	12500	0.980375
4	11186	12500	0.98035185185185
4	11458	13000	0.9660462962963
4	11458	13000	0.96602777777778
4	12530	15000	0.95363333333333
4	12530	15000	0.95363333333333
4	12530	15000	0.95323148148148
4	12834	15500	0.95003703703704
4	12834	15500	0.95002314814815
4	15265	20000	0.94840537037037
4	15265	20000	0.94840537037037
4	15265	20000	0.94838425925926
4	18129	25000	0.94659314814815
4	18129	25000	0.94659314814815
4	18129	25000	0.94656481481481
4	18401	25500	0.94638425925926
4	18401	25500	0.94636111111111
4	18705	26000	0.93205555555556
4	18705	26000	0.93203703703704
4	20033	28500	0.91606481481481
4	20033	28500	0.91605092592593
4	20864	30000	0.91553092592593
4	20864	30000	0.91553092592593
4	20864	30000	0.91549537037037
4	23760	35000	0.91369703703704
4	23760	35000	0.91369703703704
4	23760	35000	0.91367592592593
4	25632	38500	0.91241203703704
4	25632	38500	0.91238888888889
4	25904	39000	0.89808333333333
4	25904	39000	0.89806481481481
4	26479	40000	0.89193148148148
4	26479	40000	0.89193148148148
4	26479	40000	0.89165740740741
4	27487	41500	0.88207407407407
4	27487	41500	0.88206018518519
4	29359	45000	0.88081796296296
4	29359	45000	0.88081796296296
4	29359	45000	0.88078240740741
4	32078	50000	0.87898407407407
4	32078	50000	0.87898407407407
4	32078	50000	0.87896296296296
4	33086	51500	0.8784212962963
4	33086	51500	0.87839814814815
4	33358	52000	0.86409259259259
4	33358	52000	0.86407407407407
4	34718	54500	0.84810185185185
4	34718	54500	0.84808796296296
4	34990	55000	0.84792185185185
4	34990	55000	0.84792185185185
4	34990	55000	0.84789351851852
4	37677	60000	0.84610962962963
4	37677	60000	0.84610962962963
4	37677	60000	0.84607407407407
5	0	0	10800000
5	5587	2500	10627500
5	5587	2500	10627350
5	6947	5000	10617678
5	6947	5000	10617678
5	6947	5000	10617450
5	9634	10000	10598106
5	9634	10000	10598106
5	9634	10000	10597800
5	11186	12500	10588050
5	11186	12500	10587800
5	11458	13000	10433300
5	11458	13000	10433100
5	12530	15000	10299240
5	12530	15000	10299240
5	12530	15000	10294900
5	12834	15500	10260400
5	12834	15500	10260250
5	15265	20000	10242778
5	15265	20000	10242778
5	15265	20000	10242550
5	18129	25000	10223206
5	18129	25000	10223206
5	18129	25000	10222900
5	18401	25500	10220950
5	18401	25500	10220700
5	18705	26000	10066200
5	18705	26000	10066000
5	20033	28500	9893500
5	20033	28500	9893350
5	20864	30000	9887734
5	20864	30000	9887734
5	20864	30000	9887350
5	23760	35000	9867928
5	23760	35000	9867928
5	23760	35000	9867700
5	25632	38500	9854050
5	25632	38500	9853800
5	25904	39000	9699300
5	25904	39000	9699100
5	26479	40000	9632860
5	26479	40000	9632860
5	26479	40000	9629900
5	27487	41500	9526400
5	27487	41500	9526250
5	29359	45000	9512834
5	29359	45000	9512834
5	29359	45000	9512450
5	32078	50000	9493028
5	32078	50000	9493028
5	32078	50000	9492800
5	33086	51500	9486950
5	33086	51500	9486700
5	33358	52000	9332200
5	33358	52000	9332000
5	34718	54500	9159500
5	34718	54500	9159350
5	34990	55000	9157556
5	34990	55000	9157556
5	34990	55000	9157250
5	37677	60000	9137984
5	37677	60000	9137984
5	37677	60000	9137600
9	0	0	3
9	97	0	3
9	97	0	3
9	5588	2500	3
9	5588	2500	3
9	6948	5000	3
9	6948	5000	3
9	6948	5000	3
9	9619	10000	3
9	9619	10000	3
9	9635	10000	3
9	9635	10000	3
9	9635	10000	3
9	9778	10000	3
9	9778	10000	3
9	11187	12500	3
9	11187	12500	3
9	11459	13000	3
9	11459	13000	3
9	12531	15000	3
9	12531	15000	3
9	12531	15000	3
9	12835	15500	3
9	12835	15500	3
9	15250	20000	3
9	15250	20000	3
9	15266	20000	3
9	15266	20000	3
9	15266	20000	3
9	15409	20000	3
9	15409	20000	3
9	18130	25000	3
9	18130	25000	3
9	18130	25000	3
9	18402	25500	3
9	18402	25500	3
9	18706	26000	3
9	18706	26000	3
9	20034	28500	3
9	20034	28500	3
9	20849	30000	3
9	20849	30000	3
9	20865	30000	3
9	20865	30000	3
9	20865	30000	3
9	21008	30000	3
9	21008	30000	3
9	23761	35000	3
9	23761	35000	3
9	23761	35000	3
9	25633	38500	3
9	25633	38500	3
9	25905	39000	3
9	25905	39000	3
9	26464	40000	3
9	26464	40000	3
9	26480	40000	3
9	26480	40000	3
9	26480	40000	3
9	26623	40000	3
9	26623	40000	3
9	27488	41500	3
9	27488	41500	3
9	29360	45000	3
9	29360	45000	3
9	29360	45000	3
9	32063	50000	3
9	32063	50000	3
9	32079	50000	3
9	32079	50000	3
9	32079	50000	3
9	32222	50000	3
9	32222	50000	3
9	33087	51500	3
9	33087	51500	3
9	33359	52000	3
9	33359	52000	3
9	34719	54500	3
9	34719	54500	3
9	34991	55000	3
9	34991	55000	3
9	34991	55000	3
9	37662	60000	3
9	37662	60000	3
9	37678	60000	3
9	37678	60000	3
9	37678	60000	3
9	37821	60000	3
9	37821	60000	3
10	0	0	1
10	97	0	0.9999537037037
10	97	0	0.99993518518519
10	5588	2500	0.97562037037037
10	5588	2500	0.97560648148148
10	6948	5000	0.97388425925926
10	6948	5000	0.97388425925926
10	6948	5000	0.97385648148148
10	9619	10000	0.97041203703704
10	9619	10000	0.97037037037037
10	9635	10000	0.97037037037037
10	9635	10000	0.97037037037037
10	9635	10000	0.97035648148148
10	9778	10000	0.97030092592593
10	9778	10000	0.97028703703704
10	11187	12500	0.96854166666667
10	11187	12500	0.96851851851852
10	11459	13000	0.9525462962963
10	11459	13000	0.95252777777778
10	12531	15000	0.93366666666667
10	12531	15000	0.93366666666667
10	12531	15000	0.93306481481481
10	12835	15500	0.9282037037037
10	12835	15500	0.92818981481481
10	15250	20000	0.9250787037037
10	15250	20000	0.92505092592593
10	15266	20000	0.92505092592593
10	15266	20000	0.92505092592593
10	15266	20000	0.92503703703704
10	15409	20000	0.92498148148148
10	15409	20000	0.92496759259259
10	18130	25000	0.92151388888889
10	18130	25000	0.92151388888889
10	18130	25000	0.92147222222222
10	18402	25500	0.921125
10	18402	25500	0.92110185185185
10	18706	26000	0.90512962962963
10	18706	26000	0.90511111111111
10	20034	28500	0.88080555555556
10	20034	28500	0.88079166666667
10	20849	30000	0.87979166666667
10	20849	30000	0.87973611111111
10	20865	30000	0.87973611111111
10	20865	30000	0.87973611111111
10	20865	30000	0.87972222222222
10	21008	30000	0.87966666666667
10	21008	30000	0.87965277777778
10	23761	35000	0.87618518518519
10	23761	35000	0.87618518518519
10	23761	35000	0.87615740740741
10	25633	38500	0.87372685185185
10	25633	38500	0.8737037037037
10	25905	39000	0.85773148148148
10	25905	39000	0.85771296296296
10	26464	40000	0.84837962962963
10	26464	40000	0.84797222222222
10	26480	40000	0.84797222222222
10	26480	40000	0.84797222222222
10	26480	40000	0.8479537037037
10	26623	40000	0.84789814814815
10	26623	40000	0.84787962962963
10	27488	41500	0.83328703703704
10	27488	41500	0.83327314814815
10	29360	45000	0.83088425925926
10	29360	45000	0.83088425925926
10	29360	45000	0.8308287037037
10	32063	50000	0.82737037037037
10	32063	50000	0.82734259259259
10	32079	50000	0.82734259259259
10	32079	50000	0.82734259259259
10	32079	50000	0.8273287037037
10	32222	50000	0.82727314814815
10	32222	50000	0.82725925925926
10	33087	51500	0.82620833333333
10	33087	51500	0.82618518518519
10	33359	52000	0.81021296296296
10	33359	52000	0.81019444444444
10	34719	54500	0.78588888888889
10	34719	54500	0.785875
10	34991	55000	0.78555555555556
10	34991	55000	0.78555555555556
10	34991	55000	0.78551388888889
10	37662	60000	0.78208333333333
10	37662	60000	0.78202777777778
10	37678	60000	0.78202777777778
10	37678	60000	0.78202777777778
10	37678	60000	0.78201388888889
10	37821	60000	0.78195833333333
10	37821	60000	0.78194444444444
11	0	0	10800000
11	97	0	10799500
11	97	0	10799300
11	5588	2500	10536700
11	5588	2500	10536550
11	6948	5000	10517950
11	6948	5000	10517950
11	6948	5000	10517650
11	9619	10000	10480450
11	9619	10000	10480000
11	9635	10000	10480000
11	9635	10000	10480000
11	9635	10000	10479850
11	9778	10000	10479250
11	9778	10000	10479100
11	11187	12500	10460250
11	11187	12500	10460000
11	11459	13000	10287500
11	11459	13000	10287300
11	12531	15000	10083600
11	12531	15000	10083600
11	12531	15000	10077100
11	12835	15500	10024600
11	12835	15500	10024450
11	15250	20000	9990850
11	15250	20000	9990550
11	15266	20000	9990550
11	15266	20000	9990550
11	15266	20000	9990400
11	15409	20000	9989800
11	15409	20000	9989650
11	18130	25000	9952350
11	18130	25000	9952350
11	18130	25000	9951900
11	18402	25500	9948150
11	18402	25500	9947900
11	18706	26000	9775400
11	18706	26000	9775200
11	20034	28500	9512700
11	20034	28500	9512550
11	20849	30000	9501750
11	20849	30000	9501150
11	20865	30000	9501150
11	20865	30000	9501150
11	20865	30000	9501000
11	21008	30000	9500400
11	21008	30000	9500250
11	23761	35000	9462800
11	23761	35000	9462800
11	23761	35000	9462500
11	25633	38500	9436250
11	25633	38500	9436000
11	25905	39000	9263500
11	25905	39000	9263300
11	26464	40000	9162500
11	26464	40000	9158100
11	26480	40000	9158100
11	26480	40000	9158100
11	26480	40000	9157900
11	26623	40000	9157300
11	26623	40000	9157100
11	27488	41500	8999500
11	27488	41500	8999350
11	29360	45000	8973550
11	29360	45000	8973550
11	29360	45000	8972950
11	32063	50000	8935600
11	32063	50000	8935300
11	32079	50000	8935300
11	32079	50000	8935300
11	32079	50000	8935150
11	32222	50000	8934550
11	32222	50000	8934400
11	33087	51500	8923050
11	33087	51500	8922800
11	33359	52000	8750300
11	33359	52000	8750100
11	34719	54500	8487600
11	34719	54500	8487450
11	34991	55000	8484000
11	34991	55000	8484000
11	34991	55000	8483550
11	37662	60000	8446500
11	37662	60000	8445900
11	37678	60000	8445900
11	37678	60000	8445900
11	37678	60000	8445750
11	37821	60000	8445150
11	37821	60000	8445000
15	0	0	3
15	98	0	3
15	98	0	3
15	5589	2500	3
15	5589	2500	3
15	6949	5000	3
15	6949	5000	3
15	6949	5000	3
15	9620	10000	3
15	9620	10000	3
15	9636	10000	3
15	9636	10000	3
15	9636	10000	3
15	9779	10000	3
15	9779	10000	3
15	11188	12500	3
15	11188	12500	3
15	11460	13000	3
15	11460	13000	3
15	12532	15000	3
15	12532	15000	3
15	12532	15000	3
15	12836	15500	3
15	12836	15500	3
15	15251	20000	3
15	15251	20000	3
15	15267	20000	3
15	15267	20000	3
15	15267	20000	3
15	15410	20000	3
15	15410	20000	3
15	18131	25000	3
15	18131	25000	3
15	18131	25000	3
15	18403	25500	3
15	18403	25500	3
15	18707	26000	3
15	18707	26000	3
15	20035	28500	3
15	20035	28500	3
15	20850	30000	3
15	20850	30000	3
15	20866	30000	3
15	20866	30000	3
15	20866	30000	3
15	21009	30000	3
15	21009	30000	3
15	23762	35000	3
15	23762	35000	3
15	23762	35000	3
15	25634	38500	3
15	25634	38500	3
15	25906	39000	3
15	25906	39000	3
15	26465	40000	3
15	26465	40000	3
15	26481	40000	3
15	26481	40000	3
15	26481	40000	3
15	26624	40000	3
15	26624	40000	3
15	27489	41500	3
15	27489	41500	3
15	29361	45000	3
15	29361	45000	3
15	29361	45000	3
15	32064	50000	3
15	32064	50000	3
15	32080	50000	3
15	32080	50000	3
15	32080	50000	3
15	32223	50000	3
15	32223	50000	3
15	33088	51500	3
15	33088	51500	3
15	33360	52000	3
15	33360	52000	3
15	34720	54500	3
15	34720	54500	3
15	34992	55000	3
15	34992	55000	3
15	34992	55000	3
15	37663	60000	3
15	37663	60000	3
15	37679	60000	3
15	37679	60000	3
15	37679	60000	3
15	37822	60000	3
15	37822	60000	3
16	0	0	1
16	98	0	0.9999537037037
16	98	0	0.99993518518519
16	5589	2500	0.97562037037037
16	5589	2500	0.97560648148148
16	6949	5000	0.97388425925926
16	6949	5000	0.97388425925926
16	6949	5000	0.97385648148148
16	9620	10000	0.97041203703704
16	9620	10000	0.97037037037037
16	9636	10000	0.97037037037037
16	9636	10000	0.97037037037037
16	9636	10000	0.97035648148148
16	9779	10000	0.97030092592593
16	9779	10000	0.97028703703704
16	11188	12500	0.96854166666667
16	11188	12500	0.96851851851852
16	11460	13000	0.9525462962963
16	11460	13000	0.95252777777778
16	12532	15000	0.93366666666667
16	12532	15000	0.93366666666667
16	12532	15000	0.93306481481481
16	12836	15500	0.9282037037037
16	12836	15500	0.92818981481481
16	15251	20000	0.9250787037037
16	15251	20000	0.92505092592593
16	15267	20000	0.92505092592593
16	15267	20000	0.92505092592593
16	15267	20000	0.92503703703704
16	15410	20000	0.92498148148148
16	15410	20000	0.92496759259259
16	18131	25000	0.92151388888889
16	18131	25000	0.92151388888889
16	18131	25000	0.92147222222222
16	18403	25500	0.921125
16	18403	25500	0.92110185185185
16	18707	26000	0.90512962962963
16	18707	26000	0.90511111111111
16	20035	28500	0.88080555555556
16	20035	28500	0.88079166666667
16	20850	30000	0.87979166666667
16	20850	30000	0.87973611111111
16	20866	30000	0.87973611111111
16	20866	30000	0.87973611111111
16	20866	30000	0.87972222222222
16	21009	30000	0.87966666666667
16	21009	30000	0.87965277777778
16	23762	35000	0.87618518518519
16	23762	35000	0.87618518518519
16	23762	35000	0.87615740740741
16	25634	38500	0.87372685185185
16	25634	38500	0.8737037037037
16	25906	39000	0.85773148148148
16	25906	39000	0.85771296296296
16	26465	40000	0.84837962962963
16	26465	40000	0.84797222222222
16	26481	40000	0.84797222222222
16	26481	40000	0.84797222222222
16	26481	40000	0.8479537037037
16	26624	40000	0.84789814814815
16	26624	40000	0.84787962962963
16	27489	41500	0.83328703703704
16	27489	41500	0.83327314814815
16	29361	45000	0.83088425925926
16	29361	45000	0.83088425925926
16	29361	45000	0.8308287037037
16	32064	50000	0.82737037037037
16	32064	50000	0.82734259259259
16	32080	50000	0.82734259259259
16	32080	50000	0.82734259259259
16	32080	50000	0.8273287037037
16	32223	50000	0.82727314814815
16	32223	50000	0.82725925925926
16	33088	51500	0.82620833333333
16	33088	51500	0.82618518518519
16	33360	52000	0.81021296296296
16	33360	52000	0.81019444444444
16	34720	54500	0.78588888888889
16	34720	54500	0.785875
16	34992	55000	0.78555555555556
16	34992	55000	0.78555555555556
16	34992	55000	0.78551388888889
16	37663	60000	0.78208333333333
16	37663	60000	0.78202777777778
16	37679	60000	0.78202777777778
16	37679	60000	0.78202777777778
16	37679	60000	0.78201388888889
16	37822	60000	0.78195833333333
16	37822	60000	0.78194444444444
17	0	0	10800000
17	98	0	10799500
17	98	0	10799300
17	5589	2500	10536700
17	5589	2500	10536550
17	6949	5000	10517950
17	6949	5000	10517950
17	6949	5000	10517650
17	9620	10000	10480450
17	9620	10000	10480000
17	9636	10000	10480000
17	9636	10000	10480000
17	9636	10000	10479850
17	9779	10000	10479250
17	9779	10000	10479100
17	11188	12500	10460250
17	11188	12500	10460000
17	11460	13000	10287500
17	11460	13000	10287300
17	12532	15000	10083600
17	12532	15000	10083600
17	12532	15000	10077100
17	12836	15500	10024600
17	12836	15500	10024450
17	15251	20000	9990850
17	15251	20000	9990550
17	15267	20000	9990550
17	15267	20000	9990550
17	15267	20000	9990400
17	15410	20000	9989800
17	15410	20000	9989650
17	18131	25000	9952350
17	18131	25000	9952350
17	18131	25000	9951900
17	18403	25500	9948150
17	18403	25500	9947900
17	18707	26000	9775400
17	18707	26000	9775200
17	20035	28500	9512700
17	20035	28500	9512550
17	20850	30000	9501750
17	20850	30000	9501150
17	20866	30000	9501150
17	20866	30000	9501150
17	20866	30000	9501000
17	21009	30000	9500400
17	21009	30000	9500250
17	23762	35000	9462800
17	23762	35000	9462800
17	23762	35000	9462500
17	25634	38500	9436250
17	25634	38500	9436000
17	25906	39000	9263500
17	25906	39000	9263300
17	26465	40000	9162500
17	26465	40000	9158100
17	26481	40000	9158100
17	26481	40000	9158100
17	26481	40000	9157900
17	26624	40000	9157300
17	26624	40000	9157100
17	27489	41500	8999500
17	27489	41500	8999350
17	29361	45000	8973550
17	29361	45000	8973550
17	29361	45000	8972950
17	32064	50000	8935600
17	32064	50000	8935300
17	32080	50000	8935300
17	32080	50000	8935300
17	32080	50000	8935150
17	32223	50000	8934550
17	32223	50000	8934400
17	33088	51500	8923050
17	33088	51500	8922800
17	33360	52000	8750300
17	33360	52000	8750100
17	34720	54500	8487600
17	34720	54500	8487450
17	34992	55000	8484000
17	34992	55000	8484000
17	34992	55000	8483550
17	37663	60000	8446500
17	37663	60000	8445900
17	37679	60000	8445900
17	37679	60000	8445900
17	37679	60000	8445750
17	37822	60000	8445150
17	37822	60000	8445000
21	0	0	3
21	99	0	3
21	99	0	3
21	5590	2500	3
21	5590	2500	3
21	6950	5000	3
21	6950	5000	3
21	6950	5000	3
21	9621	10000	3
21	9621	10000	3
21	9637	10000	3
21	9637	10000	3
21	9637	10000	3
21	9780	10000	3
21	9780	10000	3
21	11189	12500	3
21	11189	12500	3
21	11461	13000	3
21	11461	13000	3
21	12533	15000	3
21	12533	15000	3
21	12533	15000	3
21	12837	15500	3
21	12837	15500	3
21	15252	20000	3
21	15252	20000	3
21	15268	20000	3
21	15268	20000	3
21	15268	20000	3
21	15411	20000	3
21	15411	20000	3
21	18132	25000	3
21	18132	25000	3
21	18132	25000	3
21	18404	25500	3
21	18404	25500	3
21	18708	26000	3
21	18708	26000	3
21	20036	28500	3
21	20036	28500	3
21	20851	30000	3
21	20851	30000	3
21	20867	30000	3
21	20867	30000	3
21	20867	30000	3
21	21010	30000	3
21	21010	30000	3
21	23763	35000	3
21	23763	35000	3
21	23763	35000	3
21	25635	38500	3
21	25635	38500	3
21	25907	39000	3
21	25907	39000	3
21	26466	40000	3
21	26466	40000	3
21	26482	40000	3
21	26482	40000	3
21	26482	40000	3
21	26625	40000	3
21	26625	40000	3
21	27490	41500	3
21	27490	41500	3
21	29362	45000	3
21	29362	45000	3
21	29362	45000	3
21	32065	50000	3
21	32065	50000	3
21	32081	50000	3
21	32081	50000	3
21	32081	50000	3
21	32224	50000	3
21	32224	50000	3
21	33089	51500	3
21	33089	51500	3
21	33361	52000	3
21	33361	52000	3
21	34721	54500	3
21	34721	54500	3
21	34993	55000	3
21	34993	55000	3
21	34993	55000	3
21	37664	60000	3
21	37664	60000	3
21	37680	60000	3
21	37680	60000	3
21	37680	60000	3
21	37823	60000	3
21	37823	60000	3
22	0	0	1
22	99	0	0.9999537037037
22	99	0	0.99993518518519
22	5590	2500	0.97562037037037
22	5590	2500	0.97560648148148
22	6950	5000	0.97388425925926
22	6950	5000	0.97388425925926
22	6950	5000	0.97385648148148
22	9621	10000	0.97041203703704
22	9621	10000	0.97037037037037
22	9637	10000	0.97037037037037
22	9637	10000	0.97037037037037
22	9637	10000	0.97035648148148
22	9780	10000	0.97030092592593
22	9780	10000	0.97028703703704
22	11189	12500	0.96854166666667
22	11189	12500	0.96851851851852
22	11461	13000	0.9525462962963
22	11461	13000	0.95252777777778
22	12533	15000	0.93366666666667
22	12533	15000	0.93366666666667
22	12533	15000	0.93306481481481
22	12837	15500	0.9282037037037
22	12837	15500	0.92818981481481
22	15252	20000	0.9250787037037
22	15252	20000	0.92505092592593
22	15268	20000	0.92505092592593
22	15268	20000	0.92505092592593
22	15268	20000	0.92503703703704
22	15411	20000	0.92498148148148
22	15411	20000	0.92496759259259
22	18132	25000	0.92151388888889
22	18132	25000	0.92151388888889
22	18132	25000	0.92147222222222
22	18404	25500	0.921125
22	18404	25500	0.92110185185185
22	18708	26000	0.90512962962963
22	18708	26000	0.90511111111111
22	20036	28500	0.88080555555556
22	20036	28500	0.88079166666667
22	20851	30000	0.87979166666667
22	20851	30000	0.87973611111111
22	20867	30000	0.87973611111111
22	20867	30000	0.87973611111111
22	20867	30000	0.87972222222222
22	21010	30000	0.87966666666667
22	21010	30000	0.87965277777778
22	23763	35000	0.87618518518519
22	23763	35000	0.87618518518519
22	23763	35000	0.87615740740741
22	25635	38500	0.87372685185185
22	25635	38500	0.8737037037037
22	25907	39000	0.85773148148148
22	25907	39000	0.85771296296296
22	26466	40000	0.84837962962963
22	26466	40000	0.84797222222222
22	26482	40000	0.84797222222222
22	26482	40000	0.84797222222222
22	26482	40000	0.8479537037037
22	26625	40000	0.84789814814815
22	26625	40000	0.84787962962963
22	27490	41500	0.83328703703704
22	27490	41500	0.83327314814815
22	29362	45000	0.83088425925926
22	29362	45000	0.83088425925926
22	29362	45000	0.8308287037037
22	32065	50000	0.82737037037037
22	32065	50000	0.82734259259259
22	32081	50000	0.82734259259259
22	32081	50000	0.82734259259259
22	32081	50000	0.8273287037037
22	32224	50000	0.82727314814815
22	32224	50000	0.82725925925926
22	33089	51500	0.82620833333333
22	33089	51500	0.82618518518519
22	33361	52000	0.81021296296296
22	33361	52000	0.81019444444444
22	34721	54500	0.78588888888889
22	34721	54500	0.785875
22	34993	55000	0.78555555555556
22	34993	55000	0.78555555555556
22	34993	55000	0.78551388888889
22	37664	60000	0.78208333333333
22	37664	60000	0.78202777777778
22	37680	60000	0.78202777777778
22	37680	60000	0.78202777777778
22	37680	60000	0.78201388888889
22	37823	60000	0.78195833333333
22	37823	60000	0.78194444444444
23	0	0	10800000
23	99	0	10799500
23	99	0	10799300
23	5590	2500	10536700
23	5590	2500	10536550
23	6950	5000	10517950
23	6950	5000	10517950
23	6950	5000	10517650
23	9621	10000	10480450
23	9621	10000	10480000
23	9637	10000	10480000
23	9637	10000	10480000
23	9637	10000	10479850
23	9780	10000	10479250
23	9780	10000	10479100
23	11189	12500	10460250
23	11189	12500	10460000
23	11461	13000	10287500
23	11461	13000	10287300
23	12533	15000	10083600
23	12533	15000	10083600
23	12533	15000	10077100
23	12837	15500	10024600
23	12837	15500	10024450
23	15252	20000	9990850
23	15252	20000	9990550
23	15268	20000	9990550
23	15268	20000	9990550
23	15268	20000	9990400
23	15411	20000	9989800
23	15411	20000	9989650
23	18132	25000	9952350
23	18132	25000	9952350
23	18132	25000	9951900
23	18404	25500	9948150
23	18404	25500	9947900
23	18708	26000	9775400
23	18708	26000	9775200
23	20036	28500	9512700
23	20036	28500	9512550
23	20851	30000	9501750
23	20851	30000	9501150
23	20867	30000	9501150
23	20867	30000	9501150
23	20867	30000	9501000
23	21010	30000	9500400
23	21010	30000	9500250
23	23763	35000	9462800
23	23763	35000	9462800
23	23763	35000	9462500
23	25635	38500	9436250
23	25635	38500	9436000
23	25907	39000	9263500
23	25907	39000	9263300
23	26466	40000	9162500
23	26466	40000	9158100
23	26482	40000	9158100
23	26482	40000	9158100
23	26482	40000	9157900
23	26625	40000	9157300
23	26625	40000	9157100
23	27490	41500	8999500
23	27490	41500	8999350
23	29362	45000	8973550
23	29362	45000	8973550
23	29362	45000	8972950
23	32065	50000	8935600
23	32065	50000	8935300
23	32081	50000	8935300
23	32081	50000	8935300
23	32081	50000	8935150
23	32224	50000	8934550
23	32224	50000	8934400
23	33089	51500	8923050
23	33089	51500	8922800
23	33361	52000	8750300
23	33361	52000	8750100
23	34721	54500	8487600
23	34721	54500	8487450
23	34993	55000	8484000
23	34993	55000	8484000
23	34993	55000	8483550
23	37664	60000	8446500
23	37664	60000	8445900
23	37680	60000	8445900
23	37680	60000	8445900
23	37680	60000	8445750
23	37823	60000	8445150
23	37823	60000	8445000
27	0	0	3
27	100	0	3
27	100	0	3
27	5591	2500	3
27	5591	2500	3
27	6951	5000	3
27	6951	5000	3
27	6951	5000	3
27	9622	10000	3
27	9622	10000	3
27	9638	10000	3
27	9638	10000	3
27	9638	10000	3
27	9781	10000	3
27	9781	10000	3
27	11190	12500	3
27	11190	12500	3
27	11462	13000	3
27	11462	13000	3
27	12534	15000	3
27	12534	15000	3
27	12534	15000	3
27	12838	15500	3
27	12838	15500	3
27	15253	20000	3
27	15253	20000	3
27	15269	20000	3
27	15269	20000	3
27	15269	20000	3
27	15412	20000	3
27	15412	20000	3
27	18133	25000	3
27	18133	25000	3
27	18133	25000	3
27	18405	25500	3
27	18405	25500	3
27	18709	26000	3
27	18709	26000	3
27	20037	28500	3
27	20037	28500	3
27	20852	30000	3
27	20852	30000	3
27	20868	30000	3
27	20868	30000	3
27	20868	30000	3
27	21011	30000	3
27	21011	30000	3
27	23764	35000	3
27	23764	35000	3
27	23764	35000	3
27	25636	38500	3
27	25636	38500	3
27	25908	39000	3
27	25908	39000	3
27	26467	40000	3
27	26467	40000	3
27	26483	40000	3
27	26483	40000	3
27	26483	40000	3
27	26626	40000	3
27	26626	40000	3
27	27491	41500	3
27	27491	41500	3
27	29363	45000	3
27	29363	45000	3
27	29363	45000	3
27	32066	50000	3
27	32066	50000	3
27	32082	50000	3
27	32082	50000	3
27	32082	50000	3
27	32225	50000	3
27	32225	50000	3
27	33090	51500	3
27	33090	51500	3
27	33362	52000	3
27	33362	52000	3
27	34722	54500	3
27	34722	54500	3
27	34994	55000	3
27	34994	55000	3
27	34994	55000	3
27	37665	60000	3
27	37665	60000	3
27	37681	60000	3
27	37681	60000	3
27	37681	60000	3
27	37824	60000	3
27	37824	60000	3
28	0	0	1
28	100	0	0.9999537037037
28	100	0	0.99993518518519
28	5591	2500	0.97562037037037
28	5591	2500	0.97560648148148
28	6951	5000	0.97388425925926
28	6951	5000	0.97388425925926
28	6951	5000	0.97385648148148
28	9622	10000	0.97041203703704
28	9622	10000	0.97037037037037
28	9638	10000	0.97037037037037
28	9638	10000	0.97037037037037
28	9638	10000	0.97035648148148
28	9781	10000	0.97030092592593
28	9781	10000	0.97028703703704
28	11190	12500	0.96854166666667
28	11190	12500	0.96851851851852
28	11462	13000	0.9525462962963
28	11462	13000	0.95252777777778
28	12534	15000	0.93366666666667
28	12534	15000	0.93366666666667
28	12534	15000	0.93306481481481
28	12838	15500	0.9282037037037
28	12838	15500	0.92818981481481
28	15253	20000	0.9250787037037
28	15253	20000	0.92505092592593
28	15269	20000	0.92505092592593
28	15269	20000	0.92505092592593
28	15269	20000	0.92503703703704
28	15412	20000	0.92498148148148
28	15412	20000	0.92496759259259
28	18133	25000	0.92151388888889
28	18133	25000	0.92151388888889
28	18133	25000	0.92147222222222
28	18405	25500	0.921125
28	18405	25500	0.92110185185185
28	18709	26000	0.90512962962963
28	18709	26000	0.90511111111111
28	20037	28500	0.88080555555556
28	20037	28500	0.88079166666667
28	20852	30000	0.87979166666667
28	20852	30000	0.87973611111111
28	20868	30000	0.87973611111111
28	20868	30000	0.87973611111111
28	20868	30000	0.87972222222222
28	21011	30000	0.87966666666667
28	21011	30000	0.87965277777778
28	23764	35000	0.87618518518519
28	23764	35000	0.87618518518519
28	23764	35000	0.87615740740741
28	25636	38500	0.87372685185185
28	25636	38500	0.8737037037037
28	25908	39000	0.85773148148148
28	25908	39000	0.85771296296296
28	26467	40000	0.84837962962963
28	26467	40000	0.84797222222222
28	26483	40000	0.84797222222222
28	26483	40000	0.84797222222222
28	26483	40000	0.8479537037037
28	26626	40000	0.84789814814815
28	26626	40000	0.84787962962963
28	27491	41500	0.83328703703704
28	27491	41500	0.83327314814815
28	29363	45000	0.83088425925926
28	29363	45000	0.83088425925926
28	29363	45000	0.8308287037037
28	32066	50000	0.82737037037037
28	32066	50000	0.82734259259259
28	32082	50000	0.82734259259259
28	32082	50000	0.82734259259259
28	32082	50000	0.8273287037037
28	32225	50000	0.82727314814815
28	32225	50000	0.82725925925926
28	33090	51500	0.82620833333333