version 2
run General-0-20151027-18:08:27-5070
attr configname General
attr datetime 20151027-18:08:27
attr experiment General
attr inifile omnetpp.ini
attr iterationvars ""
attr iterationvars2 $repetition=0
attr measurement ""
attr network AllNodes
attr processid 5070
attr repetition 0
attr replication #0
attr resultdir results
attr runnumber 0
attr seedset 0

vector 7  AllNodes.SensorNode[0].Processor  "power mode"  ETV
vector 8  AllNodes.SensorNode[0].Processor  "Sensor Modules Status"  ETV
vector 9  AllNodes.SensorNode[0].Processor  Voltage  ETV
vector 10  AllNodes.SensorNode[0].Processor  residualRelative  ETV
vector 11  AllNodes.SensorNode[0].Processor  residualAbs  ETV
vector 19  AllNodes.TNode[0].Processor  "power mode"  ETV
vector 20  AllNodes.TNode[0].Processor  "Sensor Modules Status"  ETV
vector 21  AllNodes.TNode[0].Processor  Voltage  ETV
vector 22  AllNodes.TNode[0].Processor  residualRelative  ETV
vector 23  AllNodes.TNode[0].Processor  residualAbs  ETV
vector 31  AllNodes.PNode[0].Processor  "power mode"  ETV
vector 32  AllNodes.PNode[0].Processor  "Sensor Modules Status"  ETV
vector 33  AllNodes.PNode[0].Processor  Voltage  ETV
vector 34  AllNodes.PNode[0].Processor  residualRelative  ETV
vector 35  AllNodes.PNode[0].Processor  residualAbs  ETV
vector 43  AllNodes.HNode[0].Processor  "power mode"  ETV
vector 44  AllNodes.HNode[0].Processor  "Sensor Modules Status"  ETV
vector 45  AllNodes.HNode[0].Processor  Voltage  ETV
vector 46  AllNodes.HNode[0].Processor  residualRelative  ETV
vector 47  AllNodes.HNode[0].Processor  residualAbs  ETV
vector 55  AllNodes.LNode[0].Processor  "power mode"  ETV
vector 56  AllNodes.LNode[0].Processor  "Sensor Modules Status"  ETV
vector 57  AllNodes.LNode[0].Processor  Voltage  ETV
vector 58  AllNodes.LNode[0].Processor  residualRelative  ETV
vector 59  AllNodes.LNode[0].Processor  residualAbs  ETV
vector 67  AllNodes.TPNode[0].Processor  "power mode"  ETV
vector 68  AllNodes.TPNode[0].Processor  "Sensor Modules Status"  ETV
vector 69  AllNodes.TPNode[0].Processor  Voltage  ETV
vector 70  AllNodes.TPNode[0].Processor  residualRelative  ETV
vector 71  AllNodes.TPNode[0].Processor  residualAbs  ETV
vector 79  AllNodes.THNode[0].Processor  "power mode"  ETV
vector 80  AllNodes.THNode[0].Processor  "Sensor Modules Status"  ETV
vector 81  AllNodes.THNode[0].Processor  Voltage  ETV
vector 82  AllNodes.THNode[0].Processor  residualRelative  ETV
vector 83  AllNodes.THNode[0].Processor  residualAbs  ETV
vector 91  AllNodes.TLNode[0].Processor  "power mode"  ETV
vector 92  AllNodes.TLNode[0].Processor  "Sensor Modules Status"  ETV
vector 93  AllNodes.TLNode[0].Processor  Voltage  ETV
vector 94  AllNodes.TLNode[0].Processor  residualRelative  ETV
vector 95  AllNodes.TLNode[0].Processor  residualAbs  ETV
vector 103  AllNodes.PHNode[0].Processor  "power mode"  ETV
vector 104  AllNodes.PHNode[0].Processor  "Sensor Modules Status"  ETV
vector 105  AllNodes.PHNode[0].Processor  Voltage  ETV
vector 106  AllNodes.PHNode[0].Processor  residualRelative  ETV
vector 107  AllNodes.PHNode[0].Processor  residualAbs  ETV
vector 115  AllNodes.PLNode[0].Processor  "power mode"  ETV
vector 116  AllNodes.PLNode[0].Processor  "Sensor Modules Status"  ETV
vector 117  AllNodes.PLNode[0].Processor  Voltage  ETV
vector 118  AllNodes.PLNode[0].Processor  residualRelative  ETV
vector 119  AllNodes.PLNode[0].Processor  residualAbs  ETV
vector 127  AllNodes.HLNode[0].Processor  "power mode"  ETV
vector 128  AllNodes.HLNode[0].Processor  "Sensor Modules Status"  ETV
vector 129  AllNodes.HLNode[0].Processor  Voltage  ETV
vector 130  AllNodes.HLNode[0].Processor  residualRelative  ETV
vector 131  AllNodes.HLNode[0].Processor  residualAbs  ETV
vector 139  AllNodes.PHLNode[0].Processor  "power mode"  ETV
vector 140  AllNodes.PHLNode[0].Processor  "Sensor Modules Status"  ETV
vector 141  AllNodes.PHLNode[0].Processor  Voltage  ETV
vector 142  AllNodes.PHLNode[0].Processor  residualRelative  ETV
vector 143  AllNodes.PHLNode[0].Processor  residualAbs  ETV
vector 151  AllNodes.THLNode[0].Processor  "power mode"  ETV
vector 152  AllNodes.THLNode[0].Processor  "Sensor Modules Status"  ETV
vector 153  AllNodes.THLNode[0].Processor  Voltage  ETV
vector 154  AllNodes.THLNode[0].Processor  residualRelative  ETV
vector 155  AllNodes.THLNode[0].Processor  residualAbs  ETV
vector 163  AllNodes.TPLNode[0].Processor  "power mode"  ETV
vector 164  AllNodes.TPLNode[0].Processor  "Sensor Modules Status"  ETV
vector 165  AllNodes.TPLNode[0].Processor  Voltage  ETV
vector 166  AllNodes.TPLNode[0].Processor  residualRelative  ETV
vector 167  AllNodes.TPLNode[0].Processor  residualAbs  ETV
vector 175  AllNodes.TPHNode[0].Processor  "power mode"  ETV
vector 176  AllNodes.TPHNode[0].Processor  "Sensor Modules Status"  ETV
vector 177  AllNodes.TPHNode[0].Processor  Voltage  ETV
vector 178  AllNodes.TPHNode[0].Processor  residualRelative  ETV
vector 179  AllNodes.TPHNode[0].Processor  residualAbs  ETV
vector 187  AllNodes.TPHLNode[0].Processor  "power mode"  ETV
vector 188  AllNodes.TPHLNode[0].Processor  "Sensor Modules Status"  ETV
vector 189  AllNodes.TPHLNode[0].Processor  Voltage  ETV
vector 190  AllNodes.TPHLNode[0].Processor  residualRelative  ETV
vector 191  AllNodes.TPHLNode[0].Processor  residualAbs  ETV
vector 192  AllNodes.SensorNode[0].Memory  "Energy Consumptions"  ETV
vector 193  AllNodes.SensorNode[0].Memory  "Current use over time"  ETV
vector 194  AllNodes.TNode[0].TemperatureSensor.SensingUnit  "Energy Consumptions"  ETV
vector 195  AllNodes.TNode[0].TemperatureSensor.SensingUnit  "Current use over time"  ETV
vector 196  AllNodes.TNode[0].TemperatureSensor.SignalConditioner  "Energy Consumptions"  ETV
vector 197  AllNodes.TNode[0].TemperatureSensor.SignalConditioner  "Current use over time"  ETV
vector 198  AllNodes.TNode[0].TemperatureSensor.SignalConverter  "Energy Consumptions"  ETV
vector 199  AllNodes.TNode[0].TemperatureSensor.SignalConverter  "Current use over time"  ETV
vector 200  AllNodes.TNode[0].TemperatureSensor.Transducer  "Energy Consumptions"  ETV
vector 201  AllNodes.TNode[0].TemperatureSensor.Transducer  "Current use over time"  ETV
vector 202  AllNodes.TNode[0].Memory  "Energy Consumptions"  ETV
vector 203  AllNodes.TNode[0].Memory  "Current use over time"  ETV
vector 204  AllNodes.PNode[0].PressureSensor.SensingUnit  "Energy Consumptions"  ETV
vector 205  AllNodes.PNode[0].PressureSensor.SensingUnit  "Current use over time"  ETV
vector 206  AllNodes.PNode[0].PressureSensor.SignalConditioner  "Energy Consumptions"  ETV
vector 207  AllNodes.PNode[0].PressureSensor.SignalConditioner  "Current use over time"  ETV
vector 208  AllNodes.PNode[0].PressureSensor.SignalConverter  "Energy Consumptions"  ETV
vector 209  AllNodes.PNode[0].PressureSensor.SignalConverter  "Current use over time"  ETV
vector 210  AllNodes.PNode[0].PressureSensor.Transducer  "Energy Consumptions"  ETV
vector 211  AllNodes.PNode[0].PressureSensor.Transducer  "Current use over time"  ETV
vector 212  AllNodes.PNode[0].Memory  "Energy Consumptions"  ETV
vector 213  AllNodes.PNode[0].Memory  "Current use over time"  ETV
vector 214  AllNodes.HNode[0].HumiditySensor.SensingUnit  "Energy Consumptions"  ETV
vector 215  AllNodes.HNode[0].HumiditySensor.SensingUnit  "Current use over time"  ETV
vector 216  AllNodes.HNode[0].HumiditySensor.SignalConditioner  "Energy Consumptions"  ETV
vector 217  AllNodes.HNode[0].HumiditySensor.SignalConditioner  "Current use over time"  ETV
vector 218  AllNodes.HNode[0].HumiditySensor.SignalConverter  "Energy Consumptions"  ETV
vector 219  AllNodes.HNode[0].HumiditySensor.SignalConverter  "Current use over time"  ETV
vector 220  AllNodes.HNode[0].HumiditySensor.Transducer  "Energy Consumptions"  ETV
vector 221  AllNodes.HNode[0].HumiditySensor.Transducer  "Current use over time"  ETV
vector 222  AllNodes.HNode[0].Memory  "Energy Consumptions"  ETV
vector 223  AllNodes.HNode[0].Memory  "Current use over time"  ETV
vector 224  AllNodes.LNode[0].LightSensor.SensingUnit  "Energy Consumptions"  ETV
vector 225  AllNodes.LNode[0].LightSensor.SensingUnit  "Current use over time"  ETV
vector 226  AllNodes.LNode[0].LightSensor.SignalConditioner  "Energy Consumptions"  ETV
vector 227  AllNodes.LNode[0].LightSensor.SignalConditioner  "Current use over time"  ETV
vector 228  AllNodes.LNode[0].LightSensor.SignalConverter  "Energy Consumptions"  ETV
vector 229  AllNodes.LNode[0].LightSensor.SignalConverter  "Current use over time"  ETV
vector 230  AllNodes.LNode[0].LightSensor.Transducer  "Energy Consumptions"  ETV
vector 231  AllNodes.LNode[0].LightSensor.Transducer  "Current use over time"  ETV
vector 232  AllNodes.LNode[0].Memory  "Energy Consumptions"  ETV
vector 233  AllNodes.LNode[0].Memory  "Current use over time"  ETV
vector 234  AllNodes.TPNode[0].TemperatureSensor.SensingUnit  "Energy Consumptions"  ETV
vector 235  AllNodes.TPNode[0].TemperatureSensor.SensingUnit  "Current use over time"  ETV
vector 236  AllNodes.TPNode[0].TemperatureSensor.SignalConditioner  "Energy Consumptions"  ETV
vector 237  AllNodes.TPNode[0].TemperatureSensor.SignalConditioner  "Current use over time"  ETV
vector 238  AllNodes.TPNode[0].TemperatureSensor.SignalConverter  "Energy Consumptions"  ETV
vector 239  AllNodes.TPNode[0].TemperatureSensor.SignalConverter  "Current use over time"  ETV
vector 240  AllNodes.TPNode[0].TemperatureSensor.Transducer  "Energy Consumptions"  ETV
vector 241  AllNodes.TPNode[0].TemperatureSensor.Transducer  "Current use over time"  ETV
vector 242  AllNodes.TPNode[0].PressureSensor.SensingUnit  "Energy Consumptions"  ETV
vector 243  AllNodes.TPNode[0].PressureSensor.SensingUnit  "Current use over time"  ETV
vector 244  AllNodes.TPNode[0].PressureSensor.SignalConditioner  "Energy Consumptions"  ETV
vector 245  AllNodes.TPNode[0].PressureSensor.SignalConditioner  "Current use over time"  ETV
vector 246  AllNodes.TPNode[0].PressureSensor.SignalConverter  "Energy Consumptions"  ETV
vector 247  AllNodes.TPNode[0].PressureSensor.SignalConverter  "Current use over time"  ETV
vector 248  AllNodes.TPNode[0].PressureSensor.Transducer  "Energy Consumptions"  ETV
vector 249  AllNodes.TPNode[0].PressureSensor.Transducer  "Current use over time"  ETV
vector 250  AllNodes.TPNode[0].Memory  "Energy Consumptions"  ETV
vector 251  AllNodes.TPNode[0].Memory  "Current use over time"  ETV
vector 252  AllNodes.THNode[0].TemperatureSensor.SensingUnit  "Energy Consumptions"  ETV
vector 253  AllNodes.THNode[0].TemperatureSensor.SensingUnit  "Current use over time"  ETV
vector 254  AllNodes.THNode[0].TemperatureSensor.SignalConditioner  "Energy Consumptions"  ETV
vector 255  AllNodes.THNode[0].TemperatureSensor.SignalConditioner  "Current use over time"  ETV
vector 256  AllNodes.THNode[0].TemperatureSensor.SignalConverter  "Energy Consumptions"  ETV
vector 257  AllNodes.THNode[0].TemperatureSensor.SignalConverter  "Current use over time"  ETV
vector 258  AllNodes.THNode[0].TemperatureSensor.Transducer  "Energy Consumptions"  ETV
vector 259  AllNodes.THNode[0].TemperatureSensor.Transducer  "Current use over time"  ETV
vector 260  AllNodes.THNode[0].HumiditySensor.SensingUnit  "Energy Consumptions"  ETV
vector 261  AllNodes.THNode[0].HumiditySensor.SensingUnit  "Current use over time"  ETV
vector 262  AllNodes.THNode[0].HumiditySensor.SignalConditioner  "Energy Consumptions"  ETV
vector 263  AllNodes.THNode[0].HumiditySensor.SignalConditioner  "Current use over time"  ETV
vector 264  AllNodes.THNode[0].HumiditySensor.SignalConverter  "Energy Consumptions"  ETV
vector 265  AllNodes.THNode[0].HumiditySensor.SignalConverter  "Current use over time"  ETV
vector 266  AllNodes.THNode[0].HumiditySensor.Transducer  "Energy Consumptions"  ETV
vector 267  AllNodes.THNode[0].HumiditySensor.Transducer  "Current use over time"  ETV
vector 268  AllNodes.THNode[0].Memory  "Energy Consumptions"  ETV
vector 269  AllNodes.THNode[0].Memory  "Current use over time"  ETV
vector 270  AllNodes.TLNode[0].TemperatureSensor.SensingUnit  "Energy Consumptions"  ETV
vector 271  AllNodes.TLNode[0].TemperatureSensor.SensingUnit  "Current use over time"  ETV
vector 272  AllNodes.TLNode[0].TemperatureSensor.SignalConditioner  "Energy Consumptions"  ETV
vector 273  AllNodes.TLNode[0].TemperatureSensor.SignalConditioner  "Current use over time"  ETV
vector 274  AllNodes.TLNode[0].TemperatureSensor.SignalConverter  "Energy Consumptions"  ETV
vector 275  AllNodes.TLNode[0].TemperatureSensor.SignalConverter  "Current use over time"  ETV
vector 276  AllNodes.TLNode[0].TemperatureSensor.Transducer  "Energy Consumptions"  ETV
vector 277  AllNodes.TLNode[0].TemperatureSensor.Transducer  "Current use over time"  ETV
vector 278  AllNodes.TLNode[0].LightSensor.SensingUnit  "Energy Consumptions"  ETV
vector 279  AllNodes.TLNode[0].LightSensor.SensingUnit  "Current use over time"  ETV
vector 280  AllNodes.TLNode[0].LightSensor.SignalConditioner  "Energy Consumptions"  ETV
vector 281  AllNodes.TLNode[0].LightSensor.SignalConditioner  "Current use over time"  ETV
vector 282  AllNodes.TLNode[0].LightSensor.SignalConverter  "Energy Consumptions"  ETV
vector 283  AllNodes.TLNode[0].LightSensor.SignalConverter  "Current use over time"  ETV
vector 284  AllNodes.TLNode[0].LightSensor.Transducer  "Energy Consumptions"  ETV
vector 285  AllNodes.TLNode[0].LightSensor.Transducer  "Current use over time"  ETV
vector 286  AllNodes.TLNode[0].Memory  "Energy Consumptions"  ETV
vector 287  AllNodes.TLNode[0].Memory  "Current use over time"  ETV
vector 288  AllNodes.PHNode[0].HumiditySensor.SensingUnit  "Energy Consumptions"  ETV
vector 289  AllNodes.PHNode[0].HumiditySensor.SensingUnit  "Current use over time"  ETV
vector 290  AllNodes.PHNode[0].HumiditySensor.SignalConditioner  "Energy Consumptions"  ETV
vector 291  AllNodes.PHNode[0].HumiditySensor.SignalConditioner  "Current use over time"  ETV
vector 292  AllNodes.PHNode[0].HumiditySensor.SignalConverter  "Energy Consumptions"  ETV
vector 293  AllNodes.PHNode[0].HumiditySensor.SignalConverter  "Current use over time"  ETV
vector 294  AllNodes.PHNode[0].HumiditySensor.Transducer  "Energy Consumptions"  ETV
vector 295  AllNodes.PHNode[0].HumiditySensor.Transducer  "Current use over time"  ETV
vector 296  AllNodes.PHNode[0].PressureSensor.SensingUnit  "Energy Consumptions"  ETV
vector 297  AllNodes.PHNode[0].PressureSensor.SensingUnit  "Current use over time"  ETV
vector 298  AllNodes.PHNode[0].PressureSensor.SignalConditioner  "Energy Consumptions"  ETV
vector 299  AllNodes.PHNode[0].PressureSensor.SignalConditioner  "Current use over time"  ETV
vector 300  AllNodes.PHNode[0].PressureSensor.SignalConverter  "Energy Consumptions"  ETV
vector 301  AllNodes.PHNode[0].PressureSensor.SignalConverter  "Current use over time"  ETV
vector 302  AllNodes.PHNode[0].PressureSensor.Transducer  "Energy Consumptions"  ETV
vector 303  AllNodes.PHNode[0].PressureSensor.Transducer  "Current use over time"  ETV
vector 304  AllNodes.PHNode[0].Memory  "Energy Consumptions"  ETV
vector 305  AllNodes.PHNode[0].Memory  "Current use over time"  ETV
vector 306  AllNodes.PLNode[0].PressureSensor.SensingUnit  "Energy Consumptions"  ETV
vector 307  AllNodes.PLNode[0].PressureSensor.SensingUnit  "Current use over time"  ETV
vector 308  AllNodes.PLNode[0].PressureSensor.SignalConditioner  "Energy Consumptions"  ETV
vector 309  AllNodes.PLNode[0].PressureSensor.SignalConditioner  "Current use over time"  ETV
vector 310  AllNodes.PLNode[0].PressureSensor.SignalConverter  "Energy Consumptions"  ETV
vector 311  AllNodes.PLNode[0].PressureSensor.SignalConverter  "Current use over time"  ETV
vector 312  AllNodes.PLNode[0].PressureSensor.Transducer  "Energy Consumptions"  ETV
vector 313  AllNodes.PLNode[0].PressureSensor.Transducer  "Current use over time"  ETV
vector 314  AllNodes.PLNode[0].LightSensor.SensingUnit  "Energy Consumptions"  ETV
vector 315  AllNodes.PLNode[0].LightSensor.SensingUnit  "Current use over time"  ETV
vector 316  AllNodes.PLNode[0].LightSensor.SignalConditioner  "Energy Consumptions"  ETV
vector 317  AllNodes.PLNode[0].LightSensor.SignalConditioner  "Current use over time"  ETV
vector 318  AllNodes.PLNode[0].LightSensor.SignalConverter  "Energy Consumptions"  ETV
vector 319  AllNodes.PLNode[0].LightSensor.SignalConverter  "Current use over time"  ETV
vector 320  AllNodes.PLNode[0].LightSensor.Transducer  "Energy Consumptions"  ETV
vector 321  AllNodes.PLNode[0].LightSensor.Transducer  "Current use over time"  ETV
vector 322  AllNodes.PLNode[0].Memory  "Energy Consumptions"  ETV
vector 323  AllNodes.PLNode[0].Memory  "Current use over time"  ETV
vector 324  AllNodes.HLNode[0].HumiditySensor.SensingUnit  "Energy Consumptions"  ETV
vector 325  AllNodes.HLNode[0].HumiditySensor.SensingUnit  "Current use over time"  ETV
vector 326  AllNodes.HLNode[0].HumiditySensor.SignalConditioner  "Energy Consumptions"  ETV
vector 327  AllNodes.HLNode[0].HumiditySensor.SignalConditioner  "Current use over time"  ETV
vector 328  AllNodes.HLNode[0].HumiditySensor.SignalConverter  "Energy Consumptions"  ETV
vector 329  AllNodes.HLNode[0].HumiditySensor.SignalConverter  "Current use over time"  ETV
vector 330  AllNodes.HLNode[0].HumiditySensor.Transducer  "Energy Consumptions"  ETV
vector 331  AllNodes.HLNode[0].HumiditySensor.Transducer  "Current use over time"  ETV
vector 332  AllNodes.HLNode[0].LightSensor.SensingUnit  "Energy Consumptions"  ETV
vector 333  AllNodes.HLNode[0].LightSensor.SensingUnit  "Current use over time"  ETV
vector 334  AllNodes.HLNode[0].LightSensor.SignalConditioner  "Energy Consumptions"  ETV
vector 335  AllNodes.HLNode[0].LightSensor.SignalConditioner  "Current use over time"  ETV
vector 336  AllNodes.HLNode[0].LightSensor.SignalConverter  "Energy Consumptions"  ETV
vector 337  AllNodes.HLNode[0].LightSensor.SignalConverter  "Current use over time"  ETV
vector 338  AllNodes.HLNode[0].LightSensor.Transducer  "Energy Consumptions"  ETV
vector 339  AllNodes.HLNode[0].LightSensor.Transducer  "Current use over time"  ETV
vector 340  AllNodes.HLNode[0].Memory  "Energy Consumptions"  ETV
vector 341  AllNodes.HLNode[0].Memory  "Current use over time"  ETV
vector 342  AllNodes.PHLNode[0].HumiditySensor.SensingUnit  "Energy Consumptions"  ETV
vector 343  AllNodes.PHLNode[0].HumiditySensor.SensingUnit  "Current use over time"  ETV
vector 344  AllNodes.PHLNode[0].HumiditySensor.SignalConditioner  "Energy Consumptions"  ETV
vector 345  AllNodes.PHLNode[0].HumiditySensor.SignalConditioner  "Current use over time"  ETV
vector 346  AllNodes.PHLNode[0].HumiditySensor.SignalConverter  "Energy Consumptions"  ETV
vector 347  AllNodes.PHLNode[0].HumiditySensor.SignalConverter  "Current use over time"  ETV
vector 348  AllNodes.PHLNode[0].HumiditySensor.Transducer  "Energy Consumptions"  ETV
vector 349  AllNodes.PHLNode[0].HumiditySensor.Transducer  "Current use over time"  ETV
vector 350  AllNodes.PHLNode[0].PressureSensor.SensingUnit  "Energy Consumptions"  ETV
vector 351  AllNodes.PHLNode[0].PressureSensor.SensingUnit  "Current use over time"  ETV
vector 352  AllNodes.PHLNode[0].PressureSensor.SignalConditioner  "Energy Consumptions"  ETV
vector 353  AllNodes.PHLNode[0].PressureSensor.SignalConditioner  "Current use over time"  ETV
vector 354  AllNodes.PHLNode[0].PressureSensor.SignalConverter  "Energy Consumptions"  ETV
vector 355  AllNodes.PHLNode[0].PressureSensor.SignalConverter  "Current use over time"  ETV
vector 356  AllNodes.PHLNode[0].PressureSensor.Transducer  "Energy Consumptions"  ETV
vector 357  AllNodes.PHLNode[0].PressureSensor.Transducer  "Current use over time"  ETV
vector 358  AllNodes.PHLNode[0].LightSensor.SensingUnit  "Energy Consumptions"  ETV
vector 359  AllNodes.PHLNode[0].LightSensor.SensingUnit  "Current use over time"  ETV
vector 360  AllNodes.PHLNode[0].LightSensor.SignalConditioner  "Energy Consumptions"  ETV
vector 361  AllNodes.PHLNode[0].LightSensor.SignalConditioner  "Current use over time"  ETV
vector 362  AllNodes.PHLNode[0].LightSensor.SignalConverter  "Energy Consumptions"  ETV
vector 363  AllNodes.PHLNode[0].LightSensor.SignalConverter  "Current use over time"  ETV
vector 364  AllNodes.PHLNode[0].LightSensor.Transducer  "Energy Consumptions"  ETV
vector 365  AllNodes.PHLNode[0].LightSensor.Transducer  "Current use over time"  ETV
vector 366  AllNodes.PHLNode[0].Memory  "Energy Consumptions"  ETV
vector 367  AllNodes.PHLNode[0].Memory  "Current use over time"  ETV
vector 368  AllNodes.THLNode[0].TemperatureSensor.SensingUnit  "Energy Consumptions"  ETV
vector 369  AllNodes.THLNode[0].TemperatureSensor.SensingUnit  "Current use over time"  ETV
vector 370  AllNodes.THLNode[0].TemperatureSensor.SignalConditioner  "Energy Consumptions"  ETV
vector 371  AllNodes.THLNode[0].TemperatureSensor.SignalConditioner  "Current use over time"  ETV
vector 372  AllNodes.THLNode[0].TemperatureSensor.SignalConverter  "Energy Consumptions"  ETV
vector 373  AllNodes.THLNode[0].TemperatureSensor.SignalConverter  "Current use over time"  ETV
vector 374  AllNodes.THLNode[0].TemperatureSensor.Transducer  "Energy Consumptions"  ETV
vector 375  AllNodes.THLNode[0].TemperatureSensor.Transducer  "Current use over time"  ETV
vector 376  AllNodes.THLNode[0].HumiditySensor.SensingUnit  "Energy Consumptions"  ETV
vector 377  AllNodes.THLNode[0].HumiditySensor.SensingUnit  "Current use over time"  ETV
vector 378  AllNodes.THLNode[0].HumiditySensor.SignalConditioner  "Energy Consumptions"  ETV
vector 379  AllNodes.THLNode[0].HumiditySensor.SignalConditioner  "Current use over time"  ETV
vector 380  AllNodes.THLNode[0].HumiditySensor.SignalConverter  "Energy Consumptions"  ETV
vector 381  AllNodes.THLNode[0].HumiditySensor.SignalConverter  "Current use over time"  ETV
vector 382  AllNodes.THLNode[0].HumiditySensor.Transducer  "Energy Consumptions"  ETV
vector 383  AllNodes.THLNode[0].HumiditySensor.Transducer  "Current use over time"  ETV
vector 384  AllNodes.THLNode[0].LightSensor.SensingUnit  "Energy Consumptions"  ETV
vector 385  AllNodes.THLNode[0].LightSensor.SensingUnit  "Current use over time"  ETV
vector 386  AllNodes.THLNode[0].LightSensor.SignalConditioner  "Energy Consumptions"  ETV
vector 387  AllNodes.THLNode[0].LightSensor.SignalConditioner  "Current use over time"  ETV
vector 388  AllNodes.THLNode[0].LightSensor.SignalConverter  "Energy Consumptions"  ETV
vector 389  AllNodes.THLNode[0].LightSensor.SignalConverter  "Current use over time"  ETV
vector 390  AllNodes.THLNode[0].LightSensor.Transducer  "Energy Consumptions"  ETV
vector 391  AllNodes.THLNode[0].LightSensor.Transducer  "Current use over time"  ETV
vector 392  AllNodes.THLNode[0].Memory  "Energy Consumptions"  ETV
vector 393  AllNodes.THLNode[0].Memory  "Current use over time"  ETV
vector 394  AllNodes.TPLNode[0].TemperatureSensor.SensingUnit  "Energy Consumptions"  ETV
vector 395  AllNodes.TPLNode[0].TemperatureSensor.SensingUnit  "Current use over time"  ETV
vector 396  AllNodes.TPLNode[0].TemperatureSensor.SignalConditioner  "Energy Consumptions"  ETV
vector 397  AllNodes.TPLNode[0].TemperatureSensor.SignalConditioner  "Current use over time"  ETV
vector 398  AllNodes.TPLNode[0].TemperatureSensor.SignalConverter  "Energy Consumptions"  ETV
vector 399  AllNodes.TPLNode[0].TemperatureSensor.SignalConverter  "Current use over time"  ETV
vector 400  AllNodes.TPLNode[0].TemperatureSensor.Transducer  "Energy Consumptions"  ETV
vector 401  AllNodes.TPLNode[0].TemperatureSensor.Transducer  "Current use over time"  ETV
vector 402  AllNodes.TPLNode[0].PressureSensor.SensingUnit  "Energy Consumptions"  ETV
vector 403  AllNodes.TPLNode[0].PressureSensor.SensingUnit  "Current use over time"  ETV
vector 404  AllNodes.TPLNode[0].PressureSensor.SignalConditioner  "Energy Consumptions"  ETV
vector 405  AllNodes.TPLNode[0].PressureSensor.SignalConditioner  "Current use over time"  ETV
vector 406  AllNodes.TPLNode[0].PressureSensor.SignalConverter  "Energy Consumptions"  ETV
vector 407  AllNodes.TPLNode[0].PressureSensor.SignalConverter  "Current use over time"  ETV
vector 408  AllNodes.TPLNode[0].PressureSensor.Transducer  "Energy Consumptions"  ETV
vector 409  AllNodes.TPLNode[0].PressureSensor.Transducer  "Current use over time"  ETV
vector 410  AllNodes.TPLNode[0].LightSensor.SensingUnit  "Energy Consumptions"  ETV
vector 411  AllNodes.TPLNode[0].LightSensor.SensingUnit  "Current use over time"  ETV
vector 412  AllNodes.TPLNode[0].LightSensor.SignalConditioner  "Energy Consumptions"  ETV
vector 413  AllNodes.TPLNode[0].LightSensor.SignalConditioner  "Current use over time"  ETV
vector 414  AllNodes.TPLNode[0].LightSensor.SignalConverter  "Energy Consumptions"  ETV
vector 415  AllNodes.TPLNode[0].LightSensor.SignalConverter  "Current use over time"  ETV
vector 416  AllNodes.TPLNode[0].LightSensor.Transducer  "Energy Consumptions"  ETV
vector 417  AllNodes.TPLNode[0].LightSensor.Transducer  "Current use over time"  ETV
vector 418  AllNodes.TPLNode[0].Memory  "Energy Consumptions"  ETV
vector 419  AllNodes.TPLNode[0].Memory  "Current use over time"  ETV
vector 420  AllNodes.TPHNode[0].TemperatureSensor.SensingUnit  "Energy Consumptions"  ETV
vector 421  AllNodes.TPHNode[0].TemperatureSensor.SensingUnit  "Current use over time"  ETV
vector 422  AllNodes.TPHNode[0].TemperatureSensor.SignalConditioner  "Energy Consumptions"  ETV
vector 423  AllNodes.TPHNode[0].TemperatureSensor.SignalConditioner  "Current use over time"  ETV
vector 424  AllNodes.TPHNode[0].TemperatureSensor.SignalConverter  "Energy Consumptions"  ETV
vector 425  AllNodes.TPHNode[0].TemperatureSensor.SignalConverter  "Current use over time"  ETV
vector 426  AllNodes.TPHNode[0].TemperatureSensor.Transducer  "Energy Consumptions"  ETV
vector 427  AllNodes.TPHNode[0].TemperatureSensor.Transducer  "Current use over time"  ETV
vector 428  AllNodes.TPHNode[0].HumiditySensor.SensingUnit  "Energy Consumptions"  ETV
vector 429  AllNodes.TPHNode[0].HumiditySensor.SensingUnit  "Current use over time"  ETV
vector 430  AllNodes.TPHNode[0].HumiditySensor.SignalConditioner  "Energy Consumptions"  ETV
vector 431  AllNodes.TPHNode[0].HumiditySensor.SignalConditioner  "Current use over time"  ETV
vector 432  AllNodes.TPHNode[0].HumiditySensor.SignalConverter  "Energy Consumptions"  ETV
vector 433  AllNodes.TPHNode[0].HumiditySensor.SignalConverter  "Current use over time"  ETV
vector 434  AllNodes.TPHNode[0].HumiditySensor.Transducer  "Energy Consumptions"  ETV
vector 435  AllNodes.TPHNode[0].HumiditySensor.Transducer  "Current use over time"  ETV
vector 436  AllNodes.TPHNode[0].PressureSensor.SensingUnit  "Energy Consumptions"  ETV
vector 437  AllNodes.TPHNode[0].PressureSensor.SensingUnit  "Current use over time"  ETV
vector 438  AllNodes.TPHNode[0].PressureSensor.SignalConditioner  "Energy Consumptions"  ETV
vector 439  AllNodes.TPHNode[0].PressureSensor.SignalConditioner  "Current use over time"  ETV
vector 440  AllNodes.TPHNode[0].PressureSensor.SignalConverter  "Energy Consumptions"  ETV
vector 441  AllNodes.TPHNode[0].PressureSensor.SignalConverter  "Current use over time"  ETV
vector 442  AllNodes.TPHNode[0].PressureSensor.Transducer  "Energy Consumptions"  ETV
vector 443  AllNodes.TPHNode[0].PressureSensor.Transducer  "Current use over time"  ETV
vector 444  AllNodes.TPHNode[0].Memory  "Energy Consumptions"  ETV
vector 445  AllNodes.TPHNode[0].Memory  "Current use over time"  ETV
vector 446  AllNodes.TPHLNode[0].TemperatureSensor.SensingUnit  "Energy Consumptions"  ETV
vector 447  AllNodes.TPHLNode[0].TemperatureSensor.SensingUnit  "Current use over time"  ETV
vector 448  AllNodes.TPHLNode[0].TemperatureSensor.SignalConditioner  "Energy Consumptions"  ETV
vector 449  AllNodes.TPHLNode[0].TemperatureSensor.SignalConditioner  "Current use over time"  ETV
vector 450  AllNodes.TPHLNode[0].TemperatureSensor.SignalConverter  "Energy Consumptions"  ETV
vector 451  AllNodes.TPHLNode[0].TemperatureSensor.SignalConverter  "Current use over time"  ETV
vector 452  AllNodes.TPHLNode[0].TemperatureSensor.Transducer  "Energy Consumptions"  ETV
vector 453  AllNodes.TPHLNode[0].TemperatureSensor.Transducer  "Current use over time"  ETV
vector 454  AllNodes.TPHLNode[0].HumiditySensor.SensingUnit  "Energy Consumptions"  ETV
vector 455  AllNodes.TPHLNode[0].HumiditySensor.SensingUnit  "Current use over time"  ETV
vector 456  AllNodes.TPHLNode[0].HumiditySensor.SignalConditioner  "Energy Consumptions"  ETV
vector 457  AllNodes.TPHLNode[0].HumiditySensor.SignalConditioner  "Current use over time"  ETV
vector 458  AllNodes.TPHLNode[0].HumiditySensor.SignalConverter  "Energy Consumptions"  ETV
vector 459  AllNodes.TPHLNode[0].HumiditySensor.SignalConverter  "Current use over time"  ETV
vector 460  AllNodes.TPHLNode[0].HumiditySensor.Transducer  "Energy Consumptions"  ETV
vector 461  AllNodes.TPHLNode[0].HumiditySensor.Transducer  "Current use over time"  ETV
vector 462  AllNodes.TPHLNode[0].PressureSensor.SensingUnit  "Energy Consumptions"  ETV
vector 463  AllNodes.TPHLNode[0].PressureSensor.SensingUnit  "Current use over time"  ETV
vector 464  AllNodes.TPHLNode[0].PressureSensor.SignalConditioner  "Energy Consumptions"  ETV
vector 465  AllNodes.TPHLNode[0].PressureSensor.SignalConditioner  "Current use over time"  ETV
vector 466  AllNodes.TPHLNode[0].PressureSensor.SignalConverter  "Energy Consumptions"  ETV
vector 467  AllNodes.TPHLNode[0].PressureSensor.SignalConverter  "Current use over time"  ETV
vector 468  AllNodes.TPHLNode[0].PressureSensor.Transducer  "Energy Consumptions"  ETV
vector 469  AllNodes.TPHLNode[0].PressureSensor.Transducer  "Current use over time"  ETV
vector 470  AllNodes.TPHLNode[0].LightSensor.SensingUnit  "Energy Consumptions"  ETV
vector 471  AllNodes.TPHLNode[0].LightSensor.SensingUnit  "Current use over time"  ETV
vector 472  AllNodes.TPHLNode[0].LightSensor.SignalConditioner  "Energy Consumptions"  ETV
vector 473  AllNodes.TPHLNode[0].LightSensor.SignalConditioner  "Current use over time"  ETV