file 36216 1450184224                                           
version 2
run General-0-20151109-12:36:47-9438
attr configname General
attr datetime 20151109-12:36:47
attr experiment General
attr inifile omnetpp.ini
attr iterationvars ""
attr iterationvars2 $repetition=0
attr measurement ""
attr network AllNodes
attr processid 9438
attr repetition 0
attr replication #0
attr resultdir results
attr runnumber 0
attr seedset 0
vector 7  AllNodes.SensorNode[0].Processor  "power mode"  ETV
7	30812 18 0 0 0 0 2 0 0 0 0
vector 8  AllNodes.SensorNode[0].Processor  "Sensor Modules Status"  ETV
8	30830 9 0 0 0 0 1 0 0 0 0
vector 9  AllNodes.SensorNode[0].Processor  Voltage  ETV
9	30839 9 0 0 0 0 1 3 3 3 9
vector 10  AllNodes.SensorNode[0].Processor  residualRelative  ETV
10	30848 10 0 0 0 0 1 1 1 1 1
vector 11  AllNodes.SensorNode[0].Processor  residualAbs  ETV
11	30858 17 0 0 0 0 1 10800000 10800000 10800000 1.1664e+014
vector 19  AllNodes.TNode[0].Processor  "power mode"  ETV
19	30875 20 0 0 0 0 2 0 0 0 0
vector 20  AllNodes.TNode[0].Processor  "Sensor Modules Status"  ETV
20	30895 10 0 0 0 0 1 0 0 0 0
vector 21  AllNodes.TNode[0].Processor  Voltage  ETV
21	30905 10 0 0 0 0 1 3 3 3 9
vector 22  AllNodes.TNode[0].Processor  residualRelative  ETV
22	30915 10 0 0 0 0 1 1 1 1 1
vector 23  AllNodes.TNode[0].Processor  residualAbs  ETV
23	30925 17 0 0 0 0 1 10800000 10800000 10800000 1.1664e+014
vector 31  AllNodes.PNode[0].Processor  "power mode"  ETV
31	30942 20 0 0 0 0 2 0 0 0 0
vector 32  AllNodes.PNode[0].Processor  "Sensor Modules Status"  ETV
32	30962 10 0 0 0 0 1 0 0 0 0
vector 33  AllNodes.PNode[0].Processor  Voltage  ETV
33	30972 10 0 0 0 0 1 3 3 3 9
vector 34  AllNodes.PNode[0].Processor  residualRelative  ETV
34	30982 10 0 0 0 0 1 1 1 1 1
vector 35  AllNodes.PNode[0].Processor  residualAbs  ETV
35	30992 17 0 0 0 0 1 10800000 10800000 10800000 1.1664e+014
vector 43  AllNodes.HNode[0].Processor  "power mode"  ETV
43	31009 20 0 0 0 0 2 0 0 0 0
vector 44  AllNodes.HNode[0].Processor  "Sensor Modules Status"  ETV
44	31029 10 0 0 0 0 1 0 0 0 0
vector 45  AllNodes.HNode[0].Processor  Voltage  ETV
45	31039 10 0 0 0 0 1 3 3 3 9
vector 46  AllNodes.HNode[0].Processor  residualRelative  ETV
46	31049 10 0 0 0 0 1 1 1 1 1
vector 47  AllNodes.HNode[0].Processor  residualAbs  ETV
47	31059 17 0 0 0 0 1 10800000 10800000 10800000 1.1664e+014
vector 55  AllNodes.LNode[0].Processor  "power mode"  ETV
55	31076 20 0 0 0 0 2 0 0 0 0
vector 56  AllNodes.LNode[0].Processor  "Sensor Modules Status"  ETV
56	31096 10 0 0 0 0 1 0 0 0 0
vector 57  AllNodes.LNode[0].Processor  Voltage  ETV
57	31106 10 0 0 0 0 1 3 3 3 9
vector 58  AllNodes.LNode[0].Processor  residualRelative  ETV
58	31116 10 0 0 0 0 1 1 1 1 1
vector 59  AllNodes.LNode[0].Processor  residualAbs  ETV
59	31126 17 0 0 0 0 1 10800000 10800000 10800000 1.1664e+014
vector 67  AllNodes.TPNode[0].Processor  "power mode"  ETV
67	31143 20 0 0 0 0 2 0 0 0 0
vector 68  AllNodes.TPNode[0].Processor  "Sensor Modules Status"  ETV
68	31163 10 0 0 0 0 1 0 0 0 0
vector 69  AllNodes.TPNode[0].Processor  Voltage  ETV
69	31173 10 0 0 0 0 1 3 3 3 9
vector 70  AllNodes.TPNode[0].Processor  residualRelative  ETV
70	31183 10 0 0 0 0 1 1 1 1 1
vector 71  AllNodes.TPNode[0].Processor  residualAbs  ETV
71	31193 17 0 0 0 0 1 10800000 10800000 10800000 1.1664e+014
vector 79  AllNodes.THNode[0].Processor  "power mode"  ETV
79	31210 20 0 0 0 0 2 0 0 0 0
vector 80  AllNodes.THNode[0].Processor  "Sensor Modules Status"  ETV
80	31230 10 0 0 0 0 1 0 0 0 0
vector 81  AllNodes.THNode[0].Processor  Voltage  ETV
81	31240 10 0 0 0 0 1 3 3 3 9
vector 82  AllNodes.THNode[0].Processor  residualRelative  ETV
82	31250 10 0 0 0 0 1 1 1 1 1
vector 83  AllNodes.THNode[0].Processor  residualAbs  ETV
83	31260 17 0 0 0 0 1 10800000 10800000 10800000 1.1664e+014
vector 91  AllNodes.TLNode[0].Processor  "power mode"  ETV
91	31277 20 0 0 0 0 2 0 0 0 0
vector 92  AllNodes.TLNode[0].Processor  "Sensor Modules Status"  ETV
92	31297 10 0 0 0 0 1 0 0 0 0
vector 93  AllNodes.TLNode[0].Processor  Voltage  ETV
93	31307 10 0 0 0 0 1 3 3 3 9
vector 94  AllNodes.TLNode[0].Processor  residualRelative  ETV
94	31317 10 0 0 0 0 1 1 1 1 1
vector 95  AllNodes.TLNode[0].Processor  residualAbs  ETV
95	31327 17 0 0 0 0 1 10800000 10800000 10800000 1.1664e+014
vector 103  AllNodes.PHNode[0].Processor  "power mode"  ETV
103	31344 22 0 0 0 0 2 0 0 0 0
vector 104  AllNodes.PHNode[0].Processor  "Sensor Modules Status"  ETV
104	31366 11 0 0 0 0 1 0 0 0 0
vector 105  AllNodes.PHNode[0].Processor  Voltage  ETV
105	31377 11 0 0 0 0 1 3 3 3 9
vector 106  AllNodes.PHNode[0].Processor  residualRelative  ETV
106	31388 11 0 0 0 0 1 1 1 1 1
vector 107  AllNodes.PHNode[0].Processor  residualAbs  ETV
107	31399 18 0 0 0 0 1 10800000 10800000 10800000 1.1664e+014
vector 115  AllNodes.PLNode[0].Processor  "power mode"  ETV
115	31417 22 0 0 0 0 2 0 0 0 0
vector 116  AllNodes.PLNode[0].Processor  "Sensor Modules Status"  ETV
116	31439 11 0 0 0 0 1 0 0 0 0
vector 117  AllNodes.PLNode[0].Processor  Voltage  ETV
117	31450 11 0 0 0 0 1 3 3 3 9
vector 118  AllNodes.PLNode[0].Processor  residualRelative  ETV
118	31461 11 0 0 0 0 1 1 1 1 1
vector 119  AllNodes.PLNode[0].Processor  residualAbs  ETV
119	31472 18 0 0 0 0 1 10800000 10800000 10800000 1.1664e+014
vector 127  AllNodes.HLNode[0].Processor  "power mode"  ETV
127	31490 22 0 0 0 0 2 0 0 0 0
vector 128  AllNodes.HLNode[0].Processor  "Sensor Modules Status"  ETV
128	31512 11 0 0 0 0 1 0 0 0 0
vector 129  AllNodes.HLNode[0].Processor  Voltage  ETV
129	31523 11 0 0 0 0 1 3 3 3 9
vector 130  AllNodes.HLNode[0].Processor  residualRelative  ETV
130	31534 11 0 0 0 0 1 1 1 1 1
vector 131  AllNodes.HLNode[0].Processor  residualAbs  ETV
131	31545 18 0 0 0 0 1 10800000 10800000 10800000 1.1664e+014
vector 139  AllNodes.PHLNode[0].Processor  "power mode"  ETV
139	31563 22 0 0 0 0 2 0 0 0 0
vector 140  AllNodes.PHLNode[0].Processor  "Sensor Modules Status"  ETV
140	31585 11 0 0 0 0 1 0 0 0 0
vector 141  AllNodes.PHLNode[0].Processor  Voltage  ETV
141	31596 11 0 0 0 0 1 3 3 3 9
vector 142  AllNodes.PHLNode[0].Processor  residualRelative  ETV
142	31607 11 0 0 0 0 1 1 1 1 1
vector 143  AllNodes.PHLNode[0].Processor  residualAbs  ETV
143	31618 18 0 0 0 0 1 10800000 10800000 10800000 1.1664e+014
vector 151  AllNodes.THLNode[0].Processor  "power mode"  ETV
151	31636 22 0 0 0 0 2 0 0 0 0
vector 152  AllNodes.THLNode[0].Processor  "Sensor Modules Status"  ETV
152	31658 11 0 0 0 0 1 0 0 0 0
vector 153  AllNodes.THLNode[0].Processor  Voltage  ETV
153	31669 11 0 0 0 0 1 3 3 3 9
vector 154  AllNodes.THLNode[0].Processor  residualRelative  ETV
154	31680 11 0 0 0 0 1 1 1 1 1
vector 155  AllNodes.THLNode[0].Processor  residualAbs  ETV
155	31691 18 0 0 0 0 1 10800000 10800000 10800000 1.1664e+014
vector 163  AllNodes.TPLNode[0].Processor  "power mode"  ETV
163	31709 22 0 0 0 0 2 0 0 0 0
vector 164  AllNodes.TPLNode[0].Processor  "Sensor Modules Status"  ETV
164	31731 11 0 0 0 0 1 0 0 0 0
vector 165  AllNodes.TPLNode[0].Processor  Voltage  ETV
165	31742 11 0 0 0 0 1 3 3 3 9
vector 166  AllNodes.TPLNode[0].Processor  residualRelative  ETV
166	31753 11 0 0 0 0 1 1 1 1 1
vector 167  AllNodes.TPLNode[0].Processor  residualAbs  ETV
167	31764 18 0 0 0 0 1 10800000 10800000 10800000 1.1664e+014
vector 175  AllNodes.TPHNode[0].Processor  "power mode"  ETV
175	31782 22 0 0 0 0 2 0 0 0 0
vector 176  AllNodes.TPHNode[0].Processor  "Sensor Modules Status"  ETV
176	31804 11 0 0 0 0 1 0 0 0 0
vector 177  AllNodes.TPHNode[0].Processor  Voltage  ETV
177	31815 11 0 0 0 0 1 3 3 3 9
vector 178  AllNodes.TPHNode[0].Processor  residualRelative  ETV
178	31826 11 0 0 0 0 1 1 1 1 1
vector 179  AllNodes.TPHNode[0].Processor  residualAbs  ETV
179	31837 18 0 0 0 0 1 10800000 10800000 10800000 1.1664e+014
vector 187  AllNodes.TPHLNode[0].Processor  "power mode"  ETV
187	31855 22 0 0 0 0 2 0 0 0 0
vector 188  AllNodes.TPHLNode[0].Processor  "Sensor Modules Status"  ETV
188	31877 11 0 0 0 0 1 0 0 0 0
vector 189  AllNodes.TPHLNode[0].Processor  Voltage  ETV
189	31888 11 0 0 0 0 1 3 3 3 9
vector 190  AllNodes.TPHLNode[0].Processor  residualRelative  ETV
190	31899 11 0 0 0 0 1 1 1 1 1
vector 191  AllNodes.TPHLNode[0].Processor  residualAbs  ETV
191	31910 18 0 0 0 0 1 10800000 10800000 10800000 1.1664e+014
vector 192  AllNodes.SensorNode[0].Memory  "Energy Consumptions"  ETV
192	31928 13 0 0 0 0 1 100 100 100 10000
vector 193  AllNodes.SensorNode[0].Memory  "Current use over time"  ETV
193	31941 11 0 0 0 0 1 3 3 3 9
vector 194  AllNodes.TNode[0].TemperatureSensor.SensingUnit  "Energy Consumptions"  ETV
194	31952 39 0 0 0 0 3 100 100 300 30000
vector 195  AllNodes.TNode[0].TemperatureSensor.SensingUnit  "Current use over time"  ETV
195	31991 11 0 0 0 0 1 3 3 3 9
vector 196  AllNodes.TNode[0].TemperatureSensor.SignalConditioner  "Energy Consumptions"  ETV
196	32002 13 0 0 0 0 1 100 100 100 10000
vector 197  AllNodes.TNode[0].TemperatureSensor.SignalConditioner  "Current use over time"  ETV
197	32015 11 0 0 0 0 1 3 3 3 9
vector 198  AllNodes.TNode[0].TemperatureSensor.SignalConverter  "Energy Consumptions"  ETV
198	32026 13 0 0 0 0 1 100 100 100 10000
vector 199  AllNodes.TNode[0].TemperatureSensor.SignalConverter  "Current use over time"  ETV
199	32039 11 0 0 0 0 1 3 3 3 9
vector 200  AllNodes.TNode[0].TemperatureSensor.Transducer  "Energy Consumptions"  ETV
200	32050 13 0 0 0 0 1 100 100 100 10000
vector 201  AllNodes.TNode[0].TemperatureSensor.Transducer  "Current use over time"  ETV
201	32063 11 0 0 0 0 1 3 3 3 9
vector 202  AllNodes.TNode[0].Memory  "Energy Consumptions"  ETV
202	32074 13 0 0 0 0 1 100 100 100 10000
vector 203  AllNodes.TNode[0].Memory  "Current use over time"  ETV
203	32087 11 0 0 0 0 1 3 3 3 9
vector 204  AllNodes.PNode[0].PressureSensor.SensingUnit  "Energy Consumptions"  ETV
204	32098 39 0 0 0 0 3 100 100 300 30000
vector 205  AllNodes.PNode[0].PressureSensor.SensingUnit  "Current use over time"  ETV
205	32137 11 0 0 0 0 1 3 3 3 9
vector 206  AllNodes.PNode[0].PressureSensor.SignalConditioner  "Energy Consumptions"  ETV
206	32148 13 0 0 0 0 1 100 100 100 10000
vector 207  AllNodes.PNode[0].PressureSensor.SignalConditioner  "Current use over time"  ETV
207	32161 11 0 0 0 0 1 3 3 3 9
vector 208  AllNodes.PNode[0].PressureSensor.SignalConverter  "Energy Consumptions"  ETV
208	32172 13 0 0 0 0 1 100 100 100 10000
vector 209  AllNodes.PNode[0].PressureSensor.SignalConverter  "Current use over time"  ETV
209	32185 11 0 0 0 0 1 3 3 3 9
vector 210  AllNodes.PNode[0].PressureSensor.Transducer  "Energy Consumptions"  ETV
210	32196 13 0 0 0 0 1 100 100 100 10000
vector 211  AllNodes.PNode[0].PressureSensor.Transducer  "Current use over time"  ETV
211	32209 11 0 0 0 0 1 3 3 3 9
vector 212  AllNodes.PNode[0].Memory  "Energy Consumptions"  ETV
212	32220 13 0 0 0 0 1 100 100 100 10000
vector 213  AllNodes.PNode[0].Memory  "Current use over time"  ETV
213	32233 11 0 0 0 0 1 3 3 3 9
vector 214  AllNodes.HNode[0].HumiditySensor.SensingUnit  "Energy Consumptions"  ETV
214	32244 39 0 0 0 0 3 100 100 300 30000
vector 215  AllNodes.HNode[0].HumiditySensor.SensingUnit  "Current use over time"  ETV
215	32283 11 0 0 0 0 1 3 3 3 9
vector 216  AllNodes.HNode[0].HumiditySensor.SignalConditioner  "Energy Consumptions"  ETV
216	32294 13 0 0 0 0 1 100 100 100 10000
vector 217  AllNodes.HNode[0].HumiditySensor.SignalConditioner  "Current use over time"  ETV
217	32307 11 0 0 0 0 1 3 3 3 9
vector 218  AllNodes.HNode[0].HumiditySensor.SignalConverter  "Energy Consumptions"  ETV
218	32318 13 0 0 0 0 1 100 100 100 10000
vector 219  AllNodes.HNode[0].HumiditySensor.SignalConverter  "Current use over time"  ETV
219	32331 11 0 0 0 0 1 3 3 3 9
vector 220  AllNodes.HNode[0].HumiditySensor.Transducer  "Energy Consumptions"  ETV
220	32342 13 0 0 0 0 1 100 100 100 10000
vector 221  AllNodes.HNode[0].HumiditySensor.Transducer  "Current use over time"  ETV
221	32355 11 0 0 0 0 1 3 3 3 9
vector 222  AllNodes.HNode[0].Memory  "Energy Consumptions"  ETV
222	32366 13 0 0 0 0 1 100 100 100 10000
vector 223  AllNodes.HNode[0].Memory  "Current use over time"  ETV
223	32379 11 0 0 0 0 1 3 3 3 9
vector 224  AllNodes.LNode[0].LightSensor.SensingUnit  "Energy Consumptions"  ETV
224	32390 39 0 0 0 0 3 100 100 300 30000
vector 225  AllNodes.LNode[0].LightSensor.SensingUnit  "Current use over time"  ETV
225	32429 11 0 0 0 0 1 3 3 3 9
vector 226  AllNodes.LNode[0].LightSensor.SignalConditioner  "Energy Consumptions"  ETV
226	32440 13 0 0 0 0 1 100 100 100 10000
vector 227  AllNodes.LNode[0].LightSensor.SignalConditioner  "Current use over time"  ETV
227	32453 11 0 0 0 0 1 3 3 3 9
vector 228  AllNodes.LNode[0].LightSensor.SignalConverter  "Energy Consumptions"  ETV
228	32464 13 0 0 0 0 1 100 100 100 10000
vector 229  AllNodes.LNode[0].LightSensor.SignalConverter  "Current use over time"  ETV
229	32477 11 0 0 0 0 1 3 3 3 9
vector 230  AllNodes.LNode[0].LightSensor.Transducer  "Energy Consumptions"  ETV
230	32488 13 0 0 0 0 1 100 100 100 10000
vector 231  AllNodes.LNode[0].LightSensor.Transducer  "Current use over time"  ETV
231	32501 11 0 0 0 0 1 3 3 3 9
vector 232  AllNodes.LNode[0].Memory  "Energy Consumptions"  ETV
232	32512 13 0 0 0 0 1 100 100 100 10000
vector 233  AllNodes.LNode[0].Memory  "Current use over time"  ETV
233	32525 11 0 0 0 0 1 3 3 3 9
vector 234  AllNodes.TPNode[0].TemperatureSensor.SensingUnit  "Energy Consumptions"  ETV
234	32536 39 0 0 0 0 3 100 100 300 30000
vector 235  AllNodes.TPNode[0].TemperatureSensor.SensingUnit  "Current use over time"  ETV
235	32575 11 0 0 0 0 1 3 3 3 9
vector 236  AllNodes.TPNode[0].TemperatureSensor.SignalConditioner  "Energy Consumptions"  ETV
236	32586 13 0 0 0 0 1 100 100 100 10000
vector 237  AllNodes.TPNode[0].TemperatureSensor.SignalConditioner  "Current use over time"  ETV
237	32599 11 0 0 0 0 1 3 3 3 9
vector 238  AllNodes.TPNode[0].TemperatureSensor.SignalConverter  "Energy Consumptions"  ETV
238	32610 13 0 0 0 0 1 100 100 100 10000
vector 239  AllNodes.TPNode[0].TemperatureSensor.SignalConverter  "Current use over time"  ETV
239	32623 11 0 0 0 0 1 3 3 3 9
vector 240  AllNodes.TPNode[0].TemperatureSensor.Transducer  "Energy Consumptions"  ETV
240	32634 13 0 0 0 0 1 100 100 100 10000
vector 241  AllNodes.TPNode[0].TemperatureSensor.Transducer  "Current use over time"  ETV
241	32647 11 0 0 0 0 1 3 3 3 9
vector 242  AllNodes.TPNode[0].PressureSensor.SensingUnit  "Energy Consumptions"  ETV
242	32658 39 0 0 0 0 3 100 100 300 30000
vector 243  AllNodes.TPNode[0].PressureSensor.SensingUnit  "Current use over time"  ETV
243	32697 11 0 0 0 0 1 3 3 3 9
vector 244  AllNodes.TPNode[0].PressureSensor.SignalConditioner  "Energy Consumptions"  ETV
244	32708 13 0 0 0 0 1 100 100 100 10000
vector 245  AllNodes.TPNode[0].PressureSensor.SignalConditioner  "Current use over time"  ETV
245	32721 11 0 0 0 0 1 3 3 3 9
vector 246  AllNodes.TPNode[0].PressureSensor.SignalConverter  "Energy Consumptions"  ETV
246	32732 13 0 0 0 0 1 100 100 100 10000
vector 247  AllNodes.TPNode[0].PressureSensor.SignalConverter  "Current use over time"  ETV
247	32745 11 0 0 0 0 1 3 3 3 9
vector 248  AllNodes.TPNode[0].PressureSensor.Transducer  "Energy Consumptions"  ETV
248	32756 13 0 0 0 0 1 100 100 100 10000
vector 249  AllNodes.TPNode[0].PressureSensor.Transducer  "Current use over time"  ETV
249	32769 11 0 0 0 0 1 3 3 3 9
vector 250  AllNodes.TPNode[0].Memory  "Energy Consumptions"  ETV
250	32780 13 0 0 0 0 1 100 100 100 10000
vector 251  AllNodes.TPNode[0].Memory  "Current use over time"  ETV
251	32793 11 0 0 0 0 1 3 3 3 9
vector 252  AllNodes.THNode[0].TemperatureSensor.SensingUnit  "Energy Consumptions"  ETV
252	32804 39 0 0 0 0 3 100 100 300 30000
vector 253  AllNodes.THNode[0].TemperatureSensor.SensingUnit  "Current use over time"  ETV
253	32843 11 0 0 0 0 1 3 3 3 9
vector 254  AllNodes.THNode[0].TemperatureSensor.SignalConditioner  "Energy Consumptions"  ETV
254	32854 13 0 0 0 0 1 100 100 100 10000
vector 255  AllNodes.THNode[0].TemperatureSensor.SignalConditioner  "Current use over time"  ETV
255	32867 11 0 0 0 0 1 3 3 3 9
vector 256  AllNodes.THNode[0].TemperatureSensor.SignalConverter  "Energy Consumptions"  ETV
256	32878 13 0 0 0 0 1 100 100 100 10000
vector 257  AllNodes.THNode[0].TemperatureSensor.SignalConverter  "Current use over time"  ETV
257	32891 11 0 0 0 0 1 3 3 3 9
vector 258  AllNodes.THNode[0].TemperatureSensor.Transducer  "Energy Consumptions"  ETV
258	32902 13 0 0 0 0 1 100 100 100 10000
vector 259  AllNodes.THNode[0].TemperatureSensor.Transducer  "Current use over time"  ETV
259	32915 11 0 0 0 0 1 3 3 3 9
vector 260  AllNodes.THNode[0].HumiditySensor.SensingUnit  "Energy Consumptions"  ETV
260	32926 39 0 0 0 0 3 100 100 300 30000
vector 261  AllNodes.THNode[0].HumiditySensor.SensingUnit  "Current use over time"  ETV
261	32965 11 0 0 0 0 1 3 3 3 9
vector 262  AllNodes.THNode[0].HumiditySensor.SignalConditioner  "Energy Consumptions"  ETV
262	32976 13 0 0 0 0 1 100 100 100 10000
vector 263  AllNodes.THNode[0].HumiditySensor.SignalConditioner  "Current use over time"  ETV
263	32989 11 0 0 0 0 1 3 3 3 9
vector 264  AllNodes.THNode[0].HumiditySensor.SignalConverter  "Energy Consumptions"  ETV
264	33000 13 0 0 0 0 1 100 100 100 10000
vector 265  AllNodes.THNode[0].HumiditySensor.SignalConverter  "Current use over time"  ETV
265	33013 11 0 0 0 0 1 3 3 3 9
vector 266  AllNodes.THNode[0].HumiditySensor.Transducer  "Energy Consumptions"  ETV
266	33024 13 0 0 0 0 1 100 100 100 10000
vector 267  AllNodes.THNode[0].HumiditySensor.Transducer  "Current use over time"  ETV
267	33037 11 0 0 0 0 1 3 3 3 9
vector 268  AllNodes.THNode[0].Memory  "Energy Consumptions"  ETV
268	33048 13 0 0 0 0 1 100 100 100 10000
vector 269  AllNodes.THNode[0].Memory  "Current use over time"  ETV
269	33061 11 0 0 0 0 1 3 3 3 9
vector 270  AllNodes.TLNode[0].TemperatureSensor.SensingUnit  "Energy Consumptions"  ETV
270	33072 39 0 0 0 0 3 100 100 300 30000
vector 271  AllNodes.TLNode[0].TemperatureSensor.SensingUnit  "Current use over time"  ETV
271	33111 11 0 0 0 0 1 3 3 3 9
vector 272  AllNodes.TLNode[0].TemperatureSensor.SignalConditioner  "Energy Consumptions"  ETV
272	33122 13 0 0 0 0 1 100 100 100 10000
vector 273  AllNodes.TLNode[0].TemperatureSensor.SignalConditioner  "Current use over time"  ETV
273	33135 11 0 0 0 0 1 3 3 3 9
vector 274  AllNodes.TLNode[0].TemperatureSensor.SignalConverter  "Energy Consumptions"  ETV
274	33146 13 0 0 0 0 1 100 100 100 10000
vector 275  AllNodes.TLNode[0].TemperatureSensor.SignalConverter  "Current use over time"  ETV
275	33159 11 0 0 0 0 1 3 3 3 9
vector 276  AllNodes.TLNode[0].TemperatureSensor.Transducer  "Energy Consumptions"  ETV
276	33170 13 0 0 0 0 1 100 100 100 10000
vector 277  AllNodes.TLNode[0].TemperatureSensor.Transducer  "Current use over time"  ETV
277	33183 11 0 0 0 0 1 3 3 3 9
vector 278  AllNodes.TLNode[0].LightSensor.SensingUnit  "Energy Consumptions"  ETV
278	33194 39 0 0 0 0 3 100 100 300 30000
vector 279  AllNodes.TLNode[0].LightSensor.SensingUnit  "Current use over time"  ETV
279	33233 11 0 0 0 0 1 3 3 3 9
vector 280  AllNodes.TLNode[0].LightSensor.SignalConditioner  "Energy Consumptions"  ETV
280	33244 13 0 0 0 0 1 100 100 100 10000
vector 281  AllNodes.TLNode[0].LightSensor.SignalConditioner  "Current use over time"  ETV
281	33257 11 0 0 0 0 1 3 3 3 9
vector 282  AllNodes.TLNode[0].LightSensor.SignalConverter  "Energy Consumptions"  ETV
282	33268 13 0 0 0 0 1 100 100 100 10000
vector 283  AllNodes.TLNode[0].LightSensor.SignalConverter  "Current use over time"  ETV
283	33281 11 0 0 0 0 1 3 3 3 9
vector 284  AllNodes.TLNode[0].LightSensor.Transducer  "Energy Consumptions"  ETV
284	33292 13 0 0 0 0 1 100 100 100 10000
vector 285  AllNodes.TLNode[0].LightSensor.Transducer  "Current use over time"  ETV
285	33305 11 0 0 0 0 1 3 3 3 9
vector 286  AllNodes.TLNode[0].Memory  "Energy Consumptions"  ETV
286	33316 13 0 0 0 0 1 100 100 100 10000
vector 287  AllNodes.TLNode[0].Memory  "Current use over time"  ETV
287	33329 11 0 0 0 0 1 3 3 3 9
vector 288  AllNodes.PHNode[0].HumiditySensor.SensingUnit  "Energy Consumptions"  ETV
288	33340 39 0 0 0 0 3 100 100 300 30000
vector 289  AllNodes.PHNode[0].HumiditySensor.SensingUnit  "Current use over time"  ETV
289	33379 11 0 0 0 0 1 3 3 3 9
vector 290  AllNodes.PHNode[0].HumiditySensor.SignalConditioner  "Energy Consumptions"  ETV
290	33390 13 0 0 0 0 1 100 100 100 10000
vector 291  AllNodes.PHNode[0].HumiditySensor.SignalConditioner  "Current use over time"  ETV
291	33403 11 0 0 0 0 1 3 3 3 9
vector 292  AllNodes.PHNode[0].HumiditySensor.SignalConverter  "Energy Consumptions"  ETV
292	33414 13 0 0 0 0 1 100 100 100 10000
vector 293  AllNodes.PHNode[0].HumiditySensor.SignalConverter  "Current use over time"  ETV
293	33427 11 0 0 0 0 1 3 3 3 9
vector 294  AllNodes.PHNode[0].HumiditySensor.Transducer  "Energy Consumptions"  ETV
294	33438 13 0 0 0 0 1 100 100 100 10000
vector 295  AllNodes.PHNode[0].HumiditySensor.Transducer  "Current use over time"  ETV
295	33451 11 0 0 0 0 1 3 3 3 9
vector 296  AllNodes.PHNode[0].PressureSensor.SensingUnit  "Energy Consumptions"  ETV
296	33462 39 0 0 0 0 3 100 100 300 30000
vector 297  AllNodes.PHNode[0].PressureSensor.SensingUnit  "Current use over time"  ETV
297	33501 11 0 0 0 0 1 3 3 3 9
vector 298  AllNodes.PHNode[0].PressureSensor.SignalConditioner  "Energy Consumptions"  ETV
298	33512 13 0 0 0 0 1 100 100 100 10000
vector 299  AllNodes.PHNode[0].PressureSensor.SignalConditioner  "Current use over time"  ETV
299	33525 11 0 0 0 0 1 3 3 3 9
vector 300  AllNodes.PHNode[0].PressureSensor.SignalConverter  "Energy Consumptions"  ETV
300	33536 13 0 0 0 0 1 100 100 100 10000
vector 301  AllNodes.PHNode[0].PressureSensor.SignalConverter  "Current use over time"  ETV
301	33549 11 0 0 0 0 1 3 3 3 9
vector 302  AllNodes.PHNode[0].PressureSensor.Transducer  "Energy Consumptions"  ETV
302	33560 13 0 0 0 0 1 100 100 100 10000
vector 303  AllNodes.PHNode[0].PressureSensor.Transducer  "Current use over time"  ETV
303	33573 11 0 0 0 0 1 3 3 3 9
vector 304  AllNodes.PHNode[0].Memory  "Energy Consumptions"  ETV
304	33584 13 0 0 0 0 1 100 100 100 10000
vector 305  AllNodes.PHNode[0].Memory  "Current use over time"  ETV
305	33597 11 0 0 0 0 1 3 3 3 9
vector 306  AllNodes.PLNode[0].PressureSensor.SensingUnit  "Energy Consumptions"  ETV
306	33608 39 0 0 0 0 3 100 100 300 30000
vector 307  AllNodes.PLNode[0].PressureSensor.SensingUnit  "Current use over time"  ETV
307	33647 11 0 0 0 0 1 3 3 3 9
vector 308  AllNodes.PLNode[0].PressureSensor.SignalConditioner  "Energy Consumptions"  ETV
308	33658 13 0 0 0 0 1 100 100 100 10000
vector 309  AllNodes.PLNode[0].PressureSensor.SignalConditioner  "Current use over time"  ETV
309	33671 11 0 0 0 0 1 3 3 3 9
vector 310  AllNodes.PLNode[0].PressureSensor.SignalConverter  "Energy Consumptions"  ETV
310	33682 13 0 0 0 0 1 100 100 100 10000
vector 311  AllNodes.PLNode[0].PressureSensor.SignalConverter  "Current use over time"  ETV
311	33695 11 0 0 0 0 1 3 3 3 9
vector 312  AllNodes.PLNode[0].PressureSensor.Transducer  "Energy Consumptions"  ETV
312	33706 13 0 0 0 0 1 100 100 100 10000
vector 313  AllNodes.PLNode[0].PressureSensor.Transducer  "Current use over time"  ETV
313	33719 11 0 0 0 0 1 3 3 3 9
vector 314  AllNodes.PLNode[0].LightSensor.SensingUnit  "Energy Consumptions"  ETV
314	33730 39 0 0 0 0 3 100 100 300 30000
vector 315  AllNodes.PLNode[0].LightSensor.SensingUnit  "Current use over time"  ETV
315	33769 11 0 0 0 0 1 3 3 3 9
vector 316  AllNodes.PLNode[0].LightSensor.SignalConditioner  "Energy Consumptions"  ETV
316	33780 13 0 0 0 0 1 100 100 100 10000
vector 317  AllNodes.PLNode[0].LightSensor.SignalConditioner  "Current use over time"  ETV
317	33793 11 0 0 0 0 1 3 3 3 9
vector 318  AllNodes.PLNode[0].LightSensor.SignalConverter  "Energy Consumptions"  ETV
318	33804 13 0 0 0 0 1 100 100 100 10000
vector 319  AllNodes.PLNode[0].LightSensor.SignalConverter  "Current use over time"  ETV
319	33817 11 0 0 0 0 1 3 3 3 9
vector 320  AllNodes.PLNode[0].LightSensor.Transducer  "Energy Consumptions"  ETV
320	33828 13 0 0 0 0 1 100 100 100 10000
vector 321  AllNodes.PLNode[0].LightSensor.Transducer  "Current use over time"  ETV
321	33841 11 0 0 0 0 1 3 3 3 9
vector 322  AllNodes.PLNode[0].Memory  "Energy Consumptions"  ETV
322	33852 13 0 0 0 0 1 100 100 100 10000
vector 323  AllNodes.PLNode[0].Memory  "Current use over time"  ETV
323	33865 11 0 0 0 0 1 3 3 3 9
vector 324  AllNodes.HLNode[0].HumiditySensor.SensingUnit  "Energy Consumptions"  ETV
324	33876 39 0 0 0 0 3 100 100 300 30000
vector 325  AllNodes.HLNode[0].HumiditySensor.SensingUnit  "Current use over time"  ETV
325	33915 11 0 0 0 0 1 3 3 3 9
vector 326  AllNodes.HLNode[0].HumiditySensor.SignalConditioner  "Energy Consumptions"  ETV
326	33926 13 0 0 0 0 1 100 100 100 10000
vector 327  AllNodes.HLNode[0].HumiditySensor.SignalConditioner  "Current use over time"  ETV
327	33939 11 0 0 0 0 1 3 3 3 9
vector 328  AllNodes.HLNode[0].HumiditySensor.SignalConverter  "Energy Consumptions"  ETV
328	33950 13 0 0 0 0 1 100 100 100 10000
vector 329  AllNodes.HLNode[0].HumiditySensor.SignalConverter  "Current use over time"  ETV
329	33963 11 0 0 0 0 1 3 3 3 9
vector 330  AllNodes.HLNode[0].HumiditySensor.Transducer  "Energy Consumptions"  ETV
330	33974 13 0 0 0 0 1 100 100 100 10000
vector 331  AllNodes.HLNode[0].HumiditySensor.Transducer  "Current use over time"  ETV
331	33987 11 0 0 0 0 1 3 3 3 9
vector 332  AllNodes.HLNode[0].LightSensor.SensingUnit  "Energy Consumptions"  ETV
332	33998 39 0 0 0 0 3 100 100 300 30000
vector 333  AllNodes.HLNode[0].LightSensor.SensingUnit  "Current use over time"  ETV
333	34037 11 0 0 0 0 1 3 3 3 9
vector 334  AllNodes.HLNode[0].LightSensor.SignalConditioner  "Energy Consumptions"  ETV
334	34048 13 0 0 0 0 1 100 100 100 10000
vector 335  AllNodes.HLNode[0].LightSensor.SignalConditioner  "Current use over time"  ETV
335	34061 11 0 0 0 0 1 3 3 3 9
vector 336  AllNodes.HLNode[0].LightSensor.SignalConverter  "Energy Consumptions"  ETV
336	34072 13 0 0 0 0 1 100 100 100 10000
vector 337  AllNodes.HLNode[0].LightSensor.SignalConverter  "Current use over time"  ETV
337	34085 11 0 0 0 0 1 3 3 3 9
vector 338  AllNodes.HLNode[0].LightSensor.Transducer  "Energy Consumptions"  ETV
338	34096 13 0 0 0 0 1 100 100 100 10000
vector 339  AllNodes.HLNode[0].LightSensor.Transducer  "Current use over time"  ETV
339	34109 11 0 0 0 0 1 3 3 3 9
vector 340  AllNodes.HLNode[0].Memory  "Energy Consumptions"  ETV
340	34120 13 0 0 0 0 1 100 100 100 10000
vector 341  AllNodes.HLNode[0].Memory  "Current use over time"  ETV
341	34133 11 0 0 0 0 1 3 3 3 9
vector 342  AllNodes.PHLNode[0].HumiditySensor.SensingUnit  "Energy Consumptions"  ETV
342	34144 39 0 0 0 0 3 100 100 300 30000
vector 343  AllNodes.PHLNode[0].HumiditySensor.SensingUnit  "Current use over time"  ETV
343	34183 11 0 0 0 0 1 3 3 3 9
vector 344  AllNodes.PHLNode[0].HumiditySensor.SignalConditioner  "Energy Consumptions"  ETV
344	34194 13 0 0 0 0 1 100 100 100 10000
vector 345  AllNodes.PHLNode[0].HumiditySensor.SignalConditioner  "Current use over time"  ETV
345	34207 11 0 0 0 0 1 3 3 3 9
vector 346  AllNodes.PHLNode[0].HumiditySensor.SignalConverter  "Energy Consumptions"  ETV
346	34218 13 0 0 0 0 1 100 100 100 10000
vector 347  AllNodes.PHLNode[0].HumiditySensor.SignalConverter  "Current use over time"  ETV
347	34231 11 0 0 0 0 1 3 3 3 9
vector 348  AllNodes.PHLNode[0].HumiditySensor.Transducer  "Energy Consumptions"  ETV
348	34242 13 0 0 0 0 1 100 100 100 10000
vector 349  AllNodes.PHLNode[0].HumiditySensor.Transducer  "Current use over time"  ETV
349	34255 11 0 0 0 0 1 3 3 3 9
vector 350  AllNodes.PHLNode[0].PressureSensor.SensingUnit  "Energy Consumptions"  ETV
350	34266 39 0 0 0 0 3 100 100 300 30000
vector 351  AllNodes.PHLNode[0].PressureSensor.SensingUnit  "Current use over time"  ETV
351	34305 11 0 0 0 0 1 3 3 3 9
vector 352  AllNodes.PHLNode[0].PressureSensor.SignalConditioner  "Energy Consumptions"  ETV
352	34316 13 0 0 0 0 1 100 100 100 10000
vector 353  AllNodes.PHLNode[0].PressureSensor.SignalConditioner  "Current use over time"  ETV
353	34329 11 0 0 0 0 1 3 3 3 9
vector 354  AllNodes.PHLNode[0].PressureSensor.SignalConverter  "Energy Consumptions"  ETV
354	34340 13 0 0 0 0 1 100 100 100 10000
vector 355  AllNodes.PHLNode[0].PressureSensor.SignalConverter  "Current use over time"  ETV
355	34353 11 0 0 0 0 1 3 3 3 9
vector 356  AllNodes.PHLNode[0].PressureSensor.Transducer  "Energy Consumptions"  ETV
356	34364 13 0 0 0 0 1 100 100 100 10000
vector 357  AllNodes.PHLNode[0].PressureSensor.Transducer  "Current use over time"  ETV
357	34377 11 0 0 0 0 1 3 3 3 9
vector 358  AllNodes.PHLNode[0].LightSensor.SensingUnit  "Energy Consumptions"  ETV
358	34388 39 0 0 0 0 3 100 100 300 30000
vector 359  AllNodes.PHLNode[0].LightSensor.SensingUnit  "Current use over time"  ETV
359	34427 11 0 0 0 0 1 3 3 3 9
vector 360  AllNodes.PHLNode[0].LightSensor.SignalConditioner  "Energy Consumptions"  ETV
360	34438 13 0 0 0 0 1 100 100 100 10000
vector 361  AllNodes.PHLNode[0].LightSensor.SignalConditioner  "Current use over time"  ETV
361	34451 11 0 0 0 0 1 3 3 3 9
vector 362  AllNodes.PHLNode[0].LightSensor.SignalConverter  "Energy Consumptions"  ETV
362	34462 13 0 0 0 0 1 100 100 100 10000
vector 363  AllNodes.PHLNode[0].LightSensor.SignalConverter  "Current use over time"  ETV
363	34475 11 0 0 0 0 1 3 3 3 9
vector 364  AllNodes.PHLNode[0].LightSensor.Transducer  "Energy Consumptions"  ETV
364	34486 13 0 0 0 0 1 100 100 100 10000
vector 365  AllNodes.PHLNode[0].LightSensor.Transducer  "Current use over time"  ETV
365	34499 11 0 0 0 0 1 3 3 3 9
vector 366  AllNodes.PHLNode[0].Memory  "Energy Consumptions"  ETV
366	34510 13 0 0 0 0 1 100 100 100 10000
vector 367  AllNodes.PHLNode[0].Memory  "Current use over time"  ETV
367	34523 11 0 0 0 0 1 3 3 3 9
vector 368  AllNodes.THLNode[0].TemperatureSensor.SensingUnit  "Energy Consumptions"  ETV
368	34534 39 0 0 0 0 3 100 100 300 30000
vector 369  AllNodes.THLNode[0].TemperatureSensor.SensingUnit  "Current use over time"  ETV