version 2
run General-0-20150512-15:26:37-13646
attr configname General
attr datetime 20150512-15:26:37
attr experiment General
attr inifile omnetpp.ini
attr iterationvars ""
attr iterationvars2 $repetition=0
attr measurement ""
attr network TrafficGenExample
attr processid 13646
attr repetition 0
attr replication #0
attr resultdir results
attr runnumber 0
attr seedset 0

vector 3  TrafficGenExample.SensorNode[0].Processor  Voltage  ETV
vector 4  TrafficGenExample.SensorNode[0].Processor  residualRelative  ETV
vector 5  TrafficGenExample.SensorNode[0].Processor  residualAbs  ETV
vector 9  TrafficGenExample.SensorNode[1].Processor  Voltage  ETV
vector 10  TrafficGenExample.SensorNode[1].Processor  residualRelative  ETV
vector 11  TrafficGenExample.SensorNode[1].Processor  residualAbs  ETV
vector 15  TrafficGenExample.SensorNode[2].Processor  Voltage  ETV
vector 16  TrafficGenExample.SensorNode[2].Processor  residualRelative  ETV
vector 17  TrafficGenExample.SensorNode[2].Processor  residualAbs  ETV
vector 21  TrafficGenExample.TempNode[0].Processor  Voltage  ETV
vector 22  TrafficGenExample.TempNode[0].Processor  residualRelative  ETV
vector 23  TrafficGenExample.TempNode[0].Processor  residualAbs  ETV
vector 27  TrafficGenExample.TempNode[1].Processor  Voltage  ETV
vector 28  TrafficGenExample.TempNode[1].Processor  residualRelative  ETV
vector 29  TrafficGenExample.TempNode[1].Processor  residualAbs  ETV
vector 33  TrafficGenExample.TempNode[2].Processor  Voltage  ETV
vector 34  TrafficGenExample.TempNode[2].Processor  residualRelative  ETV
vector 35  TrafficGenExample.TempNode[2].Processor  residualAbs  ETV
vector 39  TrafficGenExample.AllNode[0].Processor  Voltage  ETV
vector 40  TrafficGenExample.AllNode[0].Processor  residualRelative  ETV
vector 41  TrafficGenExample.AllNode[0].Processor  residualAbs  ETV
vector 45  TrafficGenExample.AllNode[1].Processor  Voltage  ETV
vector 46  TrafficGenExample.AllNode[1].Processor  residualRelative  ETV
vector 47  TrafficGenExample.AllNode[1].Processor  residualAbs  ETV
vector 51  TrafficGenExample.AllNode[2].Processor  Voltage  ETV
vector 52  TrafficGenExample.AllNode[2].Processor  residualRelative  ETV
vector 53  TrafficGenExample.AllNode[2].Processor  residualAbs  ETV
3	0	0	3
3	1627	5000	3
3	1627	5000	3
3	1627	5000	3
3	3304	10000	3
3	3304	10000	3
3	3319	10000	3
3	3319	10000	3
3	3319	10000	3
3	5023	15000	3
3	5023	15000	3
3	5023	15000	3
3	6655	20000	3
3	6655	20000	3
3	6670	20000	3
3	6670	20000	3
3	6670	20000	3
3	8353	25000	3
3	8353	25000	3
3	8353	25000	3
3	9973	30000	3
3	9973	30000	3
3	9988	30000	3
3	9988	30000	3
3	9988	30000	3
3	11695	35000	3
3	11695	35000	3
3	11695	35000	3
3	13342	40000	3
3	13342	40000	3
3	13357	40000	3
3	13357	40000	3
3	13357	40000	3
3	15025	45000	3
3	15025	45000	3
3	15025	45000	3
3	16675	50000	3
3	16675	50000	3
4	0	0	1
4	1627	5000	0.96818333333333
4	1627	5000	0.96818333333333
4	1627	5000	0.96803703703704
4	3304	10000	0.93609259259259
4	3304	10000	0.9360787037037
4	3319	10000	0.9360787037037
4	3319	10000	0.9360787037037
4	3319	10000	0.93606481481481
4	5023	15000	0.93428092592593
4	5023	15000	0.93428092592593
4	5023	15000	0.93424537037037
4	6655	20000	0.93243981481481
4	6655	20000	0.93241666666667
4	6670	20000	0.93241666666667
4	6670	20000	0.93241666666667
4	6670	20000	0.93239351851852
4	8353	25000	0.79048240740741
4	8353	25000	0.79048240740741
4	8353	25000	0.78931481481481
4	9973	30000	0.64625925925926
4	9973	30000	0.64624074074074
4	9988	30000	0.64624074074074
4	9988	30000	0.64624074074074
4	9988	30000	0.64622222222222
4	11695	35000	0.61440555555556
4	11695	35000	0.61440555555556
4	11695	35000	0.61425925925926
4	13342	40000	0.58231481481481
4	13342	40000	0.58230092592593
4	13357	40000	0.58230092592593
4	13357	40000	0.58230092592593
4	13357	40000	0.58228703703704
4	15025	45000	0.58050314814815
4	15025	45000	0.58050314814815
4	15025	45000	0.58046759259259
4	16675	50000	0.57866203703704
4	16675	50000	0.57863888888889
5	0	0	10800000
5	1627	5000	10456380
5	1627	5000	10456380
5	1627	5000	10454800
5	3304	10000	10109800
5	3304	10000	10109650
5	3319	10000	10109650
5	3319	10000	10109650
5	3319	10000	10109500
5	5023	15000	10090234
5	5023	15000	10090234
5	5023	15000	10089850
5	6655	20000	10070350
5	6655	20000	10070100
5	6670	20000	10070100
5	6670	20000	10070100
5	6670	20000	10069850
5	8353	25000	8537210
5	8353	25000	8537210
5	8353	25000	8524600
5	9973	30000	6979600
5	9973	30000	6979400
5	9988	30000	6979400
5	9988	30000	6979400
5	9988	30000	6979200
5	11695	35000	6635580
5	11695	35000	6635580
5	11695	35000	6634000
5	13342	40000	6289000
5	13342	40000	6288850
5	13357	40000	6288850
5	13357	40000	6288850
5	13357	40000	6288700
5	15025	45000	6269434
5	15025	45000	6269434
5	15025	45000	6269050
5	16675	50000	6249550
5	16675	50000	6249300
9	0	0	3
9	1628	5000	3
9	1628	5000	3
9	1628	5000	3
9	3305	10000	3
9	3305	10000	3
9	3320	10000	3
9	3320	10000	3
9	3320	10000	3
9	5024	15000	3
9	5024	15000	3
9	5024	15000	3
9	6656	20000	3
9	6656	20000	3
9	6671	20000	3
9	6671	20000	3
9	6671	20000	3
9	8354	25000	3
9	8354	25000	3
9	8354	25000	3
9	9974	30000	3
9	9974	30000	3
9	9989	30000	3
9	9989	30000	3
9	9989	30000	3
9	11696	35000	3
9	11696	35000	3
9	11696	35000	3
9	13343	40000	3
9	13343	40000	3
9	13358	40000	3
9	13358	40000	3
9	13358	40000	3
9	15026	45000	3
9	15026	45000	3
9	15026	45000	3
10	0	0	1
10	1628	5000	0.96818333333333
10	1628	5000	0.96818333333333
10	1628	5000	0.96803703703704
10	3305	10000	0.93609259259259
10	3305	10000	0.9360787037037
10	3320	10000	0.9360787037037
10	3320	10000	0.9360787037037
10	3320	10000	0.93606481481481
10	5024	15000	0.93428092592593
10	5024	15000	0.93428092592593
10	5024	15000	0.93424537037037
10	6656	20000	0.93243981481481
10	6656	20000	0.93241666666667
10	6671	20000	0.93241666666667
10	6671	20000	0.93241666666667
10	6671	20000	0.93239351851852
10	8354	25000	0.79048240740741
10	8354	25000	0.79048240740741
10	8354	25000	0.78931481481481
10	9974	30000	0.64625925925926
10	9974	30000	0.64624074074074
10	9989	30000	0.64624074074074
10	9989	30000	0.64624074074074
10	9989	30000	0.64622222222222
10	11696	35000	0.61440555555556
10	11696	35000	0.61440555555556
10	11696	35000	0.61425925925926
10	13343	40000	0.58231481481481
10	13343	40000	0.58230092592593
10	13358	40000	0.58230092592593
10	13358	40000	0.58230092592593
10	13358	40000	0.58228703703704
10	15026	45000	0.58050314814815
10	15026	45000	0.58050314814815
10	15026	45000	0.58046759259259
11	0	0	10800000
11	1628	5000	10456380
11	1628	5000	10456380
11	1628	5000	10454800
11	3305	10000	10109800
11	3305	10000	10109650
11	3320	10000	10109650
11	3320	10000	10109650
11	3320	10000	10109500
11	5024	15000	10090234
11	5024	15000	10090234
11	5024	15000	10089850
11	6656	20000	10070350
11	6656	20000	10070100
11	6671	20000	10070100
11	6671	20000	10070100
11	6671	20000	10069850
11	8354	25000	8537210
11	8354	25000	8537210
11	8354	25000	8524600
11	9974	30000	6979600
11	9974	30000	6979400
11	9989	30000	6979400
11	9989	30000	6979400
11	9989	30000	6979200
11	11696	35000	6635580
11	11696	35000	6635580
11	11696	35000	6634000
11	13343	40000	6289000
11	13343	40000	6288850
11	13358	40000	6288850
11	13358	40000	6288850
11	13358	40000	6288700
11	15026	45000	6269434
11	15026	45000	6269434
11	15026	45000	6269050
15	0	0	3
15	1629	5000	3
15	1629	5000	3
15	1629	5000	3
15	3306	10000	3
15	3306	10000	3
15	3321	10000	3
15	3321	10000	3
15	3321	10000	3
15	5025	15000	3
15	5025	15000	3
15	5025	15000	3
15	6657	20000	3
15	6657	20000	3
15	6672	20000	3
15	6672	20000	3
15	6672	20000	3
15	8355	25000	3
15	8355	25000	3
15	8355	25000	3
15	9975	30000	3
15	9975	30000	3
15	9990	30000	3
15	9990	30000	3
15	9990	30000	3
15	11697	35000	3
15	11697	35000	3
15	11697	35000	3
15	13344	40000	3
15	13344	40000	3
15	13359	40000	3
15	13359	40000	3
15	13359	40000	3
15	15027	45000	3
15	15027	45000	3
15	15027	45000	3
16	0	0	1
16	1629	5000	0.96818333333333
16	1629	5000	0.96818333333333
16	1629	5000	0.96803703703704
16	3306	10000	0.93609259259259
16	3306	10000	0.9360787037037
16	3321	10000	0.9360787037037
16	3321	10000	0.9360787037037
16	3321	10000	0.93606481481481
16	5025	15000	0.93428092592593
16	5025	15000	0.93428092592593
16	5025	15000	0.93424537037037
16	6657	20000	0.93243981481481
16	6657	20000	0.93241666666667
16	6672	20000	0.93241666666667
16	6672	20000	0.93241666666667
16	6672	20000	0.93239351851852
16	8355	25000	0.79048240740741
16	8355	25000	0.79048240740741
16	8355	25000	0.78931481481481
16	9975	30000	0.64625925925926
16	9975	30000	0.64624074074074
16	9990	30000	0.64624074074074
16	9990	30000	0.64624074074074
16	9990	30000	0.64622222222222
16	11697	35000	0.61440555555556
16	11697	35000	0.61440555555556
16	11697	35000	0.61425925925926
16	13344	40000	0.58231481481481
16	13344	40000	0.58230092592593
16	13359	40000	0.58230092592593
16	13359	40000	0.58230092592593
16	13359	40000	0.58228703703704
16	15027	45000	0.58050314814815
16	15027	45000	0.58050314814815
16	15027	45000	0.58046759259259
17	0	0	10800000
17	1629	5000	10456380
17	1629	5000	10456380
17	1629	5000	10454800
17	3306	10000	10109800
17	3306	10000	10109650
17	3321	10000	10109650
17	3321	10000	10109650
17	3321	10000	10109500
17	5025	15000	10090234
17	5025	15000	10090234
17	5025	15000	10089850
17	6657	20000	10070350
17	6657	20000	10070100
17	6672	20000	10070100
17	6672	20000	10070100
17	6672	20000	10069850
17	8355	25000	8537210
17	8355	25000	8537210
17	8355	25000	8524600
17	9975	30000	6979600
17	9975	30000	6979400
17	9990	30000	6979400
17	9990	30000	6979400
17	9990	30000	6979200
17	11697	35000	6635580
17	11697	35000	6635580
17	11697	35000	6634000
17	13344	40000	6289000
17	13344	40000	6288850
17	13359	40000	6288850
17	13359	40000	6288850
17	13359	40000	6288700
17	15027	45000	6269434
17	15027	45000	6269434
17	15027	45000	6269050
21	0	0	3
21	55	0	3
21	55	0	3
21	56	0	3
21	56	0	3
21	1630	5000	3
21	1630	5000	3
21	1630	5000	3
21	3307	10000	3
21	3307	10000	3
21	3308	10000	3
21	3308	10000	3
21	3322	10000	3
21	3322	10000	3
21	3322	10000	3
21	3400	10000	3
21	3400	10000	3
21	3401	10000	3
21	3401	10000	3
21	5026	15000	3
21	5026	15000	3
21	5026	15000	3
21	6658	20000	3
21	6658	20000	3
21	6659	20000	3
21	6659	20000	3
21	6673	20000	3
21	6673	20000	3
21	6673	20000	3
21	6751	20000	3
21	6751	20000	3
21	6752	20000	3
21	6752	20000	3
21	8356	25000	3
21	8356	25000	3
21	8356	25000	3
21	9976	30000	3
21	9976	30000	3
21	9977	30000	3
21	9977	30000	3
21	9991	30000	3
21	9991	30000	3
21	9991	30000	3
21	10069	30000	3
21	10069	30000	3
21	10070	30000	3
21	10070	30000	3
21	11698	35000	3
21	11698	35000	3
21	11698	35000	3
21	13345	40000	3
21	13345	40000	3
21	13346	40000	3
21	13346	40000	3
21	13360	40000	3
21	13360	40000	3
21	13360	40000	3
21	13438	40000	3
21	13438	40000	3
21	13439	40000	3
21	13439	40000	3
21	15028	45000	3
21	15028	45000	3
21	15028	45000	3
22	0	0	1
22	55	0	0.99990740740741
22	55	0	0.99988888888889
22	56	0	0.99988888888889
22	56	0	0.99987037037037
22	1630	5000	0.93483518518519
22	1630	5000	0.93483518518519
22	1630	5000	0.93455555555556
22	3307	10000	0.8698
22	3307	10000	0.86925925925926
22	3308	10000	0.86925925925926
22	3308	10000	0.86924537037037
22	3322	10000	0.86924537037037
22	3322	10000	0.86924537037037
22	3322	10000	0.86923148148148
22	3400	10000	0.86912037037037
22	3400	10000	0.86910648148148
22	3401	10000	0.86910648148148
22	3401	10000	0.86909259259259
22	5026	15000	0.86399685185185
22	5026	15000	0.86399685185185
22	5026	15000	0.8639212962963
22	6658	20000	0.85880296296296
22	6658	20000	0.85876851851852
22	6659	20000	0.85876851851852
22	6659	20000	0.85874537037037
22	6673	20000	0.85874537037037
22	6673	20000	0.85874537037037
22	6673	20000	0.85872222222222
22	6751	20000	0.85861111111111
22	6751	20000	0.85858796296296
22	6752	20000	0.85858796296296
22	6752	20000	0.85856481481481
22	8356	25000	0.68356851851852
22	8356	25000	0.68356851851852
22	8356	25000	0.68213425925926
22	9976	30000	0.50786203703704
22	9976	30000	0.50572222222222
22	9977	30000	0.50572222222222
22	9977	30000	0.5057037037037
22	9991	30000	0.5057037037037
22	9991	30000	0.5057037037037
22	9991	30000	0.50568518518519
22	10069	30000	0.50557407407407
22	10069	30000	0.50555555555556
22	10070	30000	0.50555555555556
22	10070	30000	0.50553703703704
22	11698	35000	0.44050185185185
22	11698	35000	0.44050185185185
22	11698	35000	0.44022222222222
22	13345	40000	0.37546666666667
22	13345	40000	0.37492592592593
22	13346	40000	0.37492592592593
22	13346	40000	0.37491203703704
22	13360	40000	0.37491203703704
22	13360	40000	0.37491203703704
22	13360	40000	0.37489814814815
22	13438	40000	0.37478703703704
22	13438	40000	0.37477314814815
22	13439	40000	0.37477314814815
22	13439	40000	0.37475925925926
22	15028	45000	0.36966351851852
22	15028	45000	0.36966351851852
22	15028	45000	0.36958796296296
23	0	0	10800000
23	55	0	10799000
23	55	0	10798800
23	56	0	10798800
23	56	0	10798600
23	1630	5000	10096220
23	1630	5000	10096220
23	1630	5000	10093200
23	3307	10000	9393840
23	3307	10000	9388000
23	3308	10000	9388000
23	3308	10000	9387850
23	3322	10000	9387850
23	3322	10000	9387850
23	3322	10000	9387700
23	3400	10000	9386500
23	3400	10000	9386350
23	3401	10000	9386350
23	3401	10000	9386200
23	5026	15000	9331166
23	5026	15000	9331166
23	5026	15000	9330350
23	6658	20000	9275072
23	6658	20000	9274700
23	6659	20000	9274700
23	6659	20000	9274450
23	6673	20000	9274450
23	6673	20000	9274450
23	6673	20000	9274200
23	6751	20000	9273000
23	6751	20000	9272750
23	6752	20000	9272750
23	6752	20000	9272500
23	8356	25000	7382540
23	8356	25000	7382540
23	8356	25000	7367050
23	9976	30000	5484910
23	9976	30000	5461800
23	9977	30000	5461800
23	9977	30000	5461600
23	9991	30000	5461600
23	9991	30000	5461600
23	9991	30000	5461400
23	10069	30000	5460200
23	10069	30000	5460000
23	10070	30000	5460000
23	10070	30000	5459800
23	11698	35000	4757420
23	11698	35000	4757420
23	11698	35000	4754400
23	13345	40000	4055040
23	13345	40000	4049200
23	13346	40000	4049200
23	13346	40000	4049050
23	13360	40000	4049050
23	13360	40000	4049050
23	13360	40000	4048900
23	13438	40000	4047700
23	13438	40000	4047550
23	13439	40000	4047550
23	13439	40000	4047400
23	15028	45000	3992366
23	15028	45000	3992366
23	15028	45000	3991550
27	0	0	3
27	57	0	3
27	57	0	3
27	58	0	3
27	58	0	3
27	1631	5000	3
27	1631	5000	3
27	1631	5000	3
27	3309	10000	3
27	3309	10000	3
27	3310	10000	3
27	3310	10000	3
27	3323	10000	3
27	3323	10000	3
27	3323	10000	3
27	3402	10000	3
27	3402	10000	3
27	3403	10000	3
27	3403	10000	3
27	5027	15000	3
27	5027	15000	3
27	5027	15000	3
27	6660	20000	3
27	6660	20000	3
27	6661	20000	3
27	6661	20000	3
27	6674	20000	3
27	6674	20000	3
27	6674	20000	3
27	6753	20000	3
27	6753	20000	3
27	6754	20000	3
27	6754	20000	3
27	8357	25000	3
27	8357	25000	3
27	8357	25000	3
27	9978	30000	3
27	9978	30000	3
27	9979	30000	3
27	9979	30000	3
27	9992	30000	3
27	9992	30000	3
27	9992	30000	3
27	10071	30000	3
27	10071	30000	3
27	10072	30000	3
27	10072	30000	3
27	11699	35000	3
27	11699	35000	3
27	11699	35000	3
27	13347	40000	3
27	13347	40000	3
27	13348	40000	3
27	13348	40000	3
27	13361	40000	3
27	13361	40000	3
27	13361	40000	3
27	13440	40000	3
27	13440	40000	3
27	13441	40000	3
27	13441	40000	3
27	15029	45000	3
27	15029	45000	3
27	15029	45000	3
28	0	0	1
28	57	0	0.99990740740741
28	57	0	0.99988888888889
28	58	0	0.99988888888889
28	58	0	0.99987037037037
28	1631	5000	0.93483518518519
28	1631	5000	0.93483518518519
28	1631	5000	0.93455555555556
28	3309	10000	0.8698
28	3309	10000	0.86925925925926
28	3310	10000	0.86925925925926
28	3310	10000	0.86924537037037
28	3323	10000	0.86924537037037
28	3323	10000	0.86924537037037
28	3323	10000	0.86923148148148
28	3402	10000	0.86912037037037
28	3402	10000	0.86910648148148
28	3403	10000	0.86910648148148
28	3403	10000	0.86909259259259
28	5027	15000	0.86399685185185
28	5027	15000	0.86399685185185
28	5027	15000	0.8639212962963
28	6660	20000	0.85880296296296
28	6660	20000	0.85876851851852
28	6661	20000	0.85876851851852
28	6661	20000	0.85874537037037
28	6674	20000	0.85874537037037
28	6674	20000	0.85874537037037
28	6674	20000	0.85872222222222
28	6753	20000	0.85861111111111
28	6753	20000	0.85858796296296
28	6754	20000	0.85858796296296
28	6754	20000	0.85856481481481
28	8357	25000	0.68356851851852
28	8357	25000	0.68356851851852
28	8357	25000	0.68213425925926
28	9978	30000	0.50786203703704
28	9978	30000	0.50572222222222
28	9979	30000	0.50572222222222
28	9979	30000	0.5057037037037
28	9992	30000	0.5057037037037
28	9992	30000	0.5057037037037
28	9992	30000	0.50568518518519
28	10071	30000	0.50557407407407
28	10071	30000	0.50555555555556
28	10072	30000	0.50555555555556
28	10072	30000	0.50553703703704
28	11699	35000	0.44050185185185
28	11699	35000	0.44050185185185
28	11699	35000	0.44022222222222
28	13347	40000	0.37546666666667
28	13347	40000	0.37492592592593
28	13348	40000	0.37492592592593
28	13348	40000	0.37491203703704
28	13361	40000	0.37491203703704
28	13361	40000	0.37491203703704
28	13361	40000	0.37489814814815
28	13440	40000	0.37478703703704
28	13440	40000	0.37477314814815
28	13441	40000	0.37477314814815
28	13441	40000	0.37475925925926
28	15029	45000	0.36966351851852
28	15029	45000	0.36966351851852
28	15029	45000	0.36958796296296
29	0	0	10800000
29	57	0	10799000
29	57	0	10798800
29	58	0	10798800
29	58	0	10798600
29	1631	5000	10096220
29	1631	5000	10096220
29	1631	5000	10093200
29	3309	10000	9393840
29	3309	10000	9388000
29	3310	10000	9388000
29	3310	10000	9387850
29	3323	10000	9387850
29	3323	10000	9387850
29	3323	10000	9387700
29	3402	10000	9386500
29	3402	10000	9386350
29	3403	10000	9386350
29	3403	10000	9386200
29	5027	15000	9331166
29	5027	15000	9331166
29	5027	15000	9330350
29	6660	20000	9275072
29	6660	20000	9274700
29	6661	20000	9274700
29	6661	20000	9274450
29	6674	20000	9274450
29	6674	20000	9274450
29	6674	20000	9274200
29	6753	20000	9273000
29	6753	20000	9272750
29	6754	20000	9272750
29	6754	20000	9272500
29	8357	25000	7382540
29	8357	25000	7382540
29	8357	25000	7367050
29	9978	30000	5484910
29	9978	30000	5461800
29	9979	30000	5461800
29	9979	30000	5461600
29	9992	30000	5461600
29	9992	30000	5461600
29	9992	30000	5461400
29	10071	30000	5460200
29	10071	30000	5460000
29	10072	30000	5460000
29	10072	30000	5459800
29	11699	35000	4757420
29	11699	35000	4757420
29	11699	35000	4754400
29	13347	40000	4055040
29	13347	40000	4049200
29	13348	40000	4049200
29	13348	40000	4049050
29	13361	40000	4049050
29	13361	40000	4049050
29	13361	40000	4048900
29	13440	40000	4047700
29	13440	40000	4047550
29	13441	40000	4047550
29	13441	40000	4047400
29	15029	45000	3992366
29	15029	45000	3992366
29	15029	45000	3991550
33	0	0	3
33	59	0	3
33	59	0	3
33	60	0	3
33	60	0	3
33	1632	5000	3
33	1632	5000	3
33	1632	5000	3
33	3311	10000	3
33	3311	10000	3
33	3312	10000	3
33	3312	10000	3
33	3324	10000	3
33	3324	10000	3
33	3324	10000	3
33	3404	10000	3
33	3404	10000	3
33	3405	10000	3
33	3405	10000	3
33	5028	15000	3
33	5028	15000	3
33	5028	15000	3
33	6662	20000	3
33	6662	20000	3
33	6663	20000	3
33	6663	20000	3
33	6675	20000	3
33	6675	20000	3
33	6675	20000	3
33	6755	20000	3
33	6755	20000	3
33	6756	20000	3
33	6756	20000	3
33	8358	25000	3
33	8358	25000	3
33	8358	25000	3
33	9980	30000	3
33	9980	30000	3
33	9981	30000	3
33	9981	30000	3
33	9993	30000	3
33	9993	30000	3
33	9993	30000	3
33	10073	30000	3
33	10073	30000	3
33	10074	30000	3
33	10074	30000	3
33	11700	35000	3
33	11700	35000	3
33	11700	35000	3
33	13349	40000	3
33	13349	40000	3
33	13350	40000	3
33	13350	40000	3
33	13362	40000	3
33	13362	40000	3
33	13362	40000	3
33	13442	40000	3
33	13442	40000	3
33	13443	40000	3
33	13443	40000	3
33	15030	45000	3
33	15030	45000	3
33	15030	45000	3
34	0	0	1
34	59	0	0.99990740740741
34	59	0	0.99988888888889
34	60	0	0.99988888888889
34	60	0	0.99987037037037
34	1632	5000	0.93483518518519
34	1632	5000	0.93483518518519
34	1632	5000	0.93455555555556
34	3311	10000	0.8698
34	3311	10000	0.86925925925926
34	3312	10000	0.86925925925926
34	3312	10000	0.86924537037037
34	3324	10000	0.86924537037037
34	3324	10000	0.86924537037037
34	3324	10000	0.86923148148148
34	3404	10000	0.86912037037037
34	3404	10000	0.86910648148148
34	3405	10000	0.86910648148148
34	3405	10000	0.86909259259259
34	5028	15000	0.86399685185185
34	5028	15000	0.86399685185185
34	5028	15000	0.8639212962963
34	6662	20000	0.85880296296296
34	6662	20000	0.85876851851852
34	6663	20000	0.85876851851852
34	6663	20000	0.85874537037037
34	6675	20000	0.85874537037037
34	6675	20000	0.85874537037037
34	6675	20000	0.85872222222222
34	6755	20000	0.85861111111111
34	6755	20000	0.85858796296296
34	6756	20000	0.85858796296296
34	6756	20000	0.85856481481481
34	8358	25000	0.68356851851852
34	8358	25000	0.68356851851852
34	8358	25000	0.68213425925926
34	9980	30000	0.50786203703704
34	9980	30000	0.50572222222222
34	9981	30000	0.50572222222222
34	9981	30000	0.5057037037037
34	9993	30000	0.5057037037037
34	9993	30000	0.5057037037037
34	9993	30000	0.50568518518519
34	10073	30000	0.50557407407407
34	10073	30000	0.50555555555556
34	10074	30000	0.50555555555556
34	10074	30000	0.50553703703704
34	11700	35000	0.44050185185185
34	11700	35000	0.44050185185185
34	11700	35000	0.44022222222222
34	13349	40000	0.37546666666667
34	13349	40000	0.37492592592593
34	13350	40000	0.37492592592593
34	13350	40000	0.37491203703704
34	13362	40000	0.37491203703704
34	13362	40000	0.37491203703704
34	13362	40000	0.37489814814815
34	13442	40000	0.37478703703704
34	13442	40000	0.37477314814815
34	13443	40000	0.37477314814815
34	13443	40000	0.37475925925926
34	15030	45000	0.36966351851852
34	15030	45000	0.36966351851852
34	15030	45000	0.36958796296296
35	0	0	10800000
35	59	0	10799000
35	59	0	10798800
35	60	0	10798800
35	60	0	10798600
35	1632	5000	10096220
35	1632	5000	10096220
35	1632	5000	10093200
35	3311	10000	9393840
35	3311	10000	9388000
35	3312	10000	9388000
35	3312	10000	9387850
35	3324	10000	9387850
35	3324	10000	9387850
35	3324	10000	9387700
35	3404	10000	9386500
35	3404	10000	9386350
35	3405	10000	9386350
35	3405	10000	9386200
35	5028	15000	9331166
35	5028	15000	9331166
35	5028	15000	9330350
35	6662	20000	9275072
35	6662	20000	9274700
35	6663	20000	9274700
35	6663	20000	9274450
35	6675	20000	9274450
35	6675	20000	9274450
35	6675	20000	9274200
35	6755	20000	9273000
35	6755	20000	9272750
35	6756	20000	9272750
35	6756	20000	9272500
35	8358	25000	7382540
35	8358	25000	7382540
35	8358	25000	7367050
35	9980	30000	5484910
35	9980	30000	5461800
35	9981	30000	5461800
35	9981	30000	5461600
35	9993	30000	5461600
35	9993	30000	5461600
35	9993	30000	5461400
35	10073	30000	5460200
35	10073	30000	5460000
35	10074	30000	5460000
35	10074	30000	5459800
35	11700	35000	4757420
35	11700	35000	4757420
35	11700	35000	4754400
35	13349	40000	4055040
35	13349	40000	4049200
35	13350	40000	4049200
35	13350	40000	4049050
35	13362	40000	4049050
35	13362	40000	4049050
35	13362	40000	4048900
35	13442	40000	4047700
35	13442	40000	4047550
35	13443	40000	4047550
35	13443	40000	4047400
35	15030	45000	3992366
35	15030	45000	3992366
35	15030	45000	3991550
39	0	0	3
39	61	0	3
39	61	0	3
39	62	0	3
39	62	0	3
39	63	0	3
39	63	0	3
39	64	0	3
39	64	0	3
39	1633	5000	3
39	1633	5000	3
39	1633	5000	3
39	3313	10000	3
39	3313	10000	3
39	3314	10000	3
39	3314	10000	3
39	3325	10000	3
39	3325	10000	3
39	3325	10000	3
39	3406	10000	3
39	3406	10000	3
39	3407	10000	3
39	3407	10000	3
39	3408	10000	3
39	3408	10000	3
39	3409	10000	3
39	3409	10000	3
39	5029	15000	3
39	5029	15000	3
39	5029	15000	3
39	6664	20000	3
39	6664	20000	3
39	6665	20000	3
39	6665	20000	3
39	6676	20000	3
39	6676	20000	3
39	6676	20000	3
39	6757	20000	3
39	6757	20000	3
39	6758	20000	3
39	6758	20000	3
39	6759	20000	3
39	6759	20000	3
39	6760	20000	3
39	6760	20000	3
39	8359	25000	3
39	8359	25000	3
39	8359	25000	3
39	9982	30000	3
39	9982	30000	3
39	9983	30000	3
39	9983	30000	3
39	9994	30000	3
39	9994	30000	3
39	9994	30000	3
39	10075	30000	3
39	10075	30000	3
39	10076	30000	3
39	10076	30000	3
39	10077	30000	3
39	10077	30000	3
39	10078	30000	3
39	10078	30000	3
39	11701	35000	3
39	11701	35000	3
39	11701	35000	3
39	13351	40000	3
39	13351	40000	3
39	13352	40000	3
39	13352	40000	3
39	13363	40000	3
39	13363	40000	3
39	13363	40000	3
39	13444	40000	3
39	13444	40000	3
39	13445	40000	3
39	13445	40000	3
39	13446	40000	3
39	13446	40000	3
39	13447	40000	3
39	13447	40000	3
39	15031	45000	3
39	15031	45000	3
39	15031	45000	3
40	0	0	1
40	61	0	0.99981481481481
40	61	0	0.9997962962963
40	62	0	0.9997962962963
40	62	0	0.99977777777778
40	63	0	0.99977777777778
40	63	0	0.99975925925926
40	64	0	0.99975925925926
40	64	0	0.99974074074074
40	1633	5000	0.90148703703704
40	1633	5000	0.90148703703704
40	1633	5000	0.90107407407407
40	3313	10000	0.80325185185185
40	3313	10000	0.80244444444444
40	3314	10000	0.80244444444444
40	3314	10000	0.80243055555556
40	3325	10000	0.80243055555556
40	3325	10000	0.80243055555556
40	3325	10000	0.80241666666667
40	3406	10000	0.80219444444444
40	3406	10000	0.80218055555556
40	3407	10000	0.80218055555556
40	3407	10000	0.80216666666667
40	3408	10000	0.80216666666667
40	3408	10000	0.80215277777778
40	3409	10000	0.80215277777778
40	3409	10000	0.80213888888889
40	5029	15000	0.7937312962963
40	5029	15000	0.7937312962963
40	5029	15000	0.79361574074074
40	6664	20000	0.78517740740741
40	6664	20000	0.78512962962963
40	6665	20000	0.78512962962963
40	6665	20000	0.78510648148148
40	6676	20000	0.78510648148148
40	6676	20000	0.78510648148148
40	6676	20000	0.78508333333333
40	6757	20000	0.78486111111111
40	6757	20000	0.78483796296296
40	6758	20000	0.78483796296296
40	6758	20000	0.78481481481481
40	6759	20000	0.78481481481481
40	6759	20000	0.78479166666667
40	6760	20000	0.78479166666667
40	6760	20000	0.78476851851852
40	8359	25000	0.57668703703704
40	8359	25000	0.57668703703704
40	8359	25000	0.57498611111111
40	9982	30000	0.36778055555556
40	9982	30000	0.36524074074074
40	9983	30000	0.36524074074074
40	9983	30000	0.36522222222222
40	9994	30000	0.36522222222222
40	9994	30000	0.36522222222222
40	9994	30000	0.3652037037037
40	10075	30000	0.36498148148148
40	10075	30000	0.36496296296296
40	10076	30000	0.36496296296296
40	10076	30000	0.36494444444444
40	10077	30000	0.36494444444444
40	10077	30000	0.36492592592593
40	10078	30000	0.36492592592593
40	10078	30000	0.36490740740741
40	11701	35000	0.2666537037037
40	11701	35000	0.2666537037037
40	11701	35000	0.26624074074074
40	13351	40000	0.16841851851852
40	13351	40000	0.16761111111111
40	13352	40000	0.16761111111111
40	13352	40000	0.16759722222222
40	13363	40000	0.16759722222222
40	13363	40000	0.16759722222222
40	13363	40000	0.16758333333333
40	13444	40000	0.16736111111111
40	13444	40000	0.16734722222222
40	13445	40000	0.16734722222222
40	13445	40000	0.16733333333333
40	13446	40000	0.16733333333333
40	13446	40000	0.16731944444444
40	13447	40000	0.16731944444444
40	13447	40000	0.16730555555556
40	15031	45000	0.15889796296296
40	15031	45000	0.15889796296296
40	15031	45000	0.15878240740741
41	0	0	10800000
41	61	0	10798000
41	61	0	10797800
41	62	0	10797800
41	62	0	10797600
41	63	0	10797600
41	63	0	10797400
41	64	0	10797400
41	64	0	10797200
41	1633	5000	9736060
41	1633	5000	9736060
41	1633	5000	9731600
41	3313	10000	8675120
41	3313	10000	8666400
41	3314	10000	8666400
41	3314	10000	8666250
41	3325	10000	8666250
41	3325	10000	8666250
41	3325	10000	8666100
41	3406	10000	8663700
41	3406	10000	8663550
41	3407	10000	8663550
41	3407	10000	8663400
41	3408	10000	8663400
41	3408	10000	8663250
41	3409	10000	8663250
41	3409	10000	8663100
41	5029	15000	8572298
41	5029	15000	8572298
41	5029	15000	8571050
41	6664	20000	8479916
41	6664	20000	8479400
41	6665	20000	8479400
41	6665	20000	8479150
41	6676	20000	8479150
41	6676	20000	8479150
41	6676	20000	8478900
41	6757	20000	8476500
41	6757	20000	8476250
41	6758	20000	8476250
41	6758	20000	8476000
41	6759	20000	8476000
41	6759	20000	8475750
41	6760	20000	8475750
41	6760	20000	8475500
41	8359	25000	6228220
41	8359	25000	6228220
41	8359	25000	6209850
41	9982	30000	3972030
41	9982	30000	3944600
41	9983	30000	3944600
41	9983	30000	3944400
41	9994	30000	3944400
41	9994	30000	3944400
41	9994	30000	3944200
41	10075	30000	3941800
41	10075	30000	3941600
41	10076	30000	3941600
41	10076	30000	3941400
41	10077	30000	3941400
41	10077	30000	3941200
41	10078	30000	3941200
41	10078	30000	3941000
41	11701	35000	2879860
41	11701	35000	2879860
41	11701	35000	2875400
41	13351	40000	1818920
41	13351	40000	1810200
41	13352	40000	1810200
41	13352	40000	1810050
41	13363	40000	1810050
41	13363	40000	1810050
41	13363	40000	1809900
41	13444	40000	1807500
41	13444	40000	1807350
41	13445	40000	1807350
41	13445	40000	1807200
41	13446	40000	1807200
41	13446	40000	1807050
41	13447	40000	1807050
41	13447	40000	1806900
41	15031	45000	1716098
41	15031	45000	1716098
41	15031	45000	1714850
45	0	0	3
45	65	0	3
45	65	0	3
45	66	0	3
45	66	0	3
45	67	0	3
45	67	0	3
45	68	0	3
45	68	0	3
45	1634	5000	3
45	1634	5000	3
45	1634	5000	3
45	3315	10000	3
45	3315	10000	3
45	3316	10000	3
45	3316	10000	3
45	3326	10000	3
45	3326	10000	3
45	3326	10000	3
45	3410	10000	3
45	3410	10000	3
45	3411	10000	3
45	3411	10000	3
45	3412	10000	3
45	3412	10000	3
45	3413	10000	3
45	3413	10000	3
45	5030	15000	3
45	5030	15000	3
45	5030	15000	3
45	6666	20000	3
45	6666	20000	3
45	6667	20000	3
45	6667	20000	3
45	6677	20000	3
45	6677	20000	3
45	6677	20000	3
45	6761	20000	3
45	6761	20000	3
45	6762	20000	3
45	6762	20000	3
45	6763	20000	3
45	6763	20000	3
45	6764	20000	3
45	6764	20000	3
45	8360	25000	3
45	8360	25000	3
45	8360	25000	3
45	9984	30000	3
45	9984	30000	3
45	9985	30000	3
45	9985	30000	3
45	9995	30000	3
45	9995	30000	3
45	9995	30000	3
45	10079	30000	3
45	10079	30000	3
45	10080	30000	3
45	10080	30000	3
45	10081	30000	3
45	10081	30000	3
45	10082	30000	3
45	10082	30000	3
45	11702	35000	3
45	11702	35000	3
45	11702	35000	3
45	13353	40000	3
45	13353	40000	3
45	13354	40000	3
45	13354	40000	3
45	13364	40000	3
45	13364	40000	3
45	13364	40000	3
45	13448	40000	3
45	13448	40000	3
45	13449	40000	3
45	13449	40000	3
45	13450	40000	3
45	13450	40000	3
45	13451	40000	3
45	13451	40000	3
45	15032	45000	3
45	15032	45000	3
45	15032	45000	3
46	0	0	1
46	65	0	0.99981481481481
46	65	0	0.9997962962963
46	66	0	0.9997962962963
46	66	0	0.99977777777778
46	67	0	0.99977777777778
46	67	0	0.99975925925926
46	68	0	0.99975925925926
46	68	0	0.99974074074074