file 237316 1449503266                                          
version 2
run General-0-20150721-16:40:49-1654
attr configname General
attr datetime 20150721-16:40:49
attr experiment General
attr inifile omnetpp.ini
attr iterationvars ""
attr iterationvars2 $repetition=0
attr measurement ""
attr network BasicExample
attr processid 1654
attr repetition 0
attr replication #0
attr resultdir results
attr runnumber 0
attr seedset 0
vector 3  BasicExample.SensorNode[0].Processor  "power mode"  ETV
3	20215 363 0 29810 0 85000 24 0 2 18 30
vector 4  BasicExample.SensorNode[0].Processor  "Sensor Modules Status"  ETV
4	20578 8 0 0 0 0 1 0 0 0 0
vector 5  BasicExample.SensorNode[0].Processor  Voltage  ETV
5	20586 4639 0 30212 0 87000 296 3 3 888 2664
vector 6  BasicExample.SensorNode[0].Processor  residualRelative  ETV
6	25225 8988 0 30212 0 87000 296 0.023083333333333 1 153.56278648148 105.4883045054
vector 7  BasicExample.SensorNode[0].Processor  residualAbs  ETV
7	34213 6422 0 30212 0 87000 296 249300 10800000 1658478094 1.2304155837509e+16
vector 11  BasicExample.SensorNode[1].Processor  "power mode"  ETV
11	40635 387 0 29811 0 85000 24 0 2 18 30
vector 12  BasicExample.SensorNode[1].Processor  "Sensor Modules Status"  ETV
12	41022 9 0 0 0 0 1 0 0 0 0
vector 13  BasicExample.SensorNode[1].Processor  Voltage  ETV
13	41031 4935 0 30213 0 87000 296 3 3 888 2664
vector 14  BasicExample.SensorNode[1].Processor  residualRelative  ETV
14	45966 9284 0 30213 0 87000 296 0.023083333333333 1 153.56278648148 105.4883045054
vector 15  BasicExample.SensorNode[1].Processor  residualAbs  ETV
15	55250 6718 0 30213 0 87000 296 249300 10800000 1658478094 1.2304155837509e+16
vector 19  BasicExample.TNode[0].Processor  "power mode"  ETV
19	61968 319 0 26650 0 70000 20 0 2 15 25
vector 20  BasicExample.TNode[0].Processor  "Sensor Modules Status"  ETV
20	62287 255 0 26664 0 70000 16 0 1 7 7
vector 21  BasicExample.TNode[0].Processor  Voltage  ETV
21	62542 4611 0 27378 0 73000 278 3 3 834 2502
vector 22  BasicExample.TNode[0].Processor  residualRelative  ETV
22	67153 8695 0 27378 0 73000 278 0.0024675925925926 1 143.31259722222 98.422937785729
vector 23  BasicExample.TNode[0].Processor  residualAbs  ETV
23	75848 6308 0 27378 0 73000 278 26650 10800000 1547776050 1.1480051463328e+16
vector 27  BasicExample.TNode[1].Processor  "power mode"  ETV
27	82156 319 0 26651 0 70000 20 0 2 15 25
vector 28  BasicExample.TNode[1].Processor  "Sensor Modules Status"  ETV
28	82475 255 0 26665 0 70000 16 0 1 7 7
vector 29  BasicExample.TNode[1].Processor  Voltage  ETV
29	82730 4611 0 27379 0 73000 278 3 3 834 2502
vector 30  BasicExample.TNode[1].Processor  residualRelative  ETV
30	87341 8695 0 27379 0 73000 278 0.0024675925925926 1 143.31259722222 98.422937785729
vector 31  BasicExample.TNode[1].Processor  residualAbs  ETV
31	96036 6308 0 27379 0 73000 278 26650 10800000 1547776050 1.1480051463328e+16
vector 35  BasicExample.TPNode[0].Processor  "power mode"  ETV
35	102344 285 0 24194 0 60000 18 0 2 12 20
vector 36  BasicExample.TPNode[0].Processor  "Sensor Modules Status"  ETV
36	102629 332 0 24229 0 60000 21 0 1 6 6
vector 37  BasicExample.TPNode[0].Processor  Voltage  ETV
37	102961 4034 0 24229 0 60000 245 3 3 735 2205
vector 38  BasicExample.TPNode[0].Processor  residualRelative  ETV
38	106995 7556 0 24229 0 60000 245 0.010203703703704 1 129.74326222222 89.877430869044
vector 39  BasicExample.TPNode[0].Processor  residualAbs  ETV
39	114551 5532 0 24229 0 60000 245 110200 10800000 1401227232 1.0483303536565e+16
vector 43  BasicExample.TPNode[1].Processor  "power mode"  ETV
43	120083 285 0 24195 0 60000 18 0 2 12 20
vector 44  BasicExample.TPNode[1].Processor  "Sensor Modules Status"  ETV
44	120368 332 0 24231 0 60000 21 0 1 6 6
vector 45  BasicExample.TPNode[1].Processor  Voltage  ETV
45	120700 4034 0 24231 0 60000 245 3 3 735 2205
vector 46  BasicExample.TPNode[1].Processor  residualRelative  ETV
46	124734 7556 0 24231 0 60000 245 0.010203703703704 1 129.74326222222 89.877430869044
vector 47  BasicExample.TPNode[1].Processor  residualAbs  ETV
47	132290 5532 0 24231 0 60000 245 110200 10800000 1401227232 1.0483303536565e+16
vector 51  BasicExample.PHLNode[0].Processor  "power mode"  ETV
51	137822 251 0 22766 0 55000 16 0 2 12 20
vector 52  BasicExample.PHLNode[0].Processor  "Sensor Modules Status"  ETV
52	138073 375 0 21218 0 50000 24 0 1 5 5
vector 53  BasicExample.PHLNode[0].Processor  Voltage  ETV
53	138448 3882 0 23088 0 56000 237 3 3 711 2133
vector 54  BasicExample.PHLNode[0].Processor  residualRelative  ETV
54	142330 7405 0 23088 0 56000 237 0.024435185185185 1 120.79997351852 83.713332060497
vector 55  BasicExample.PHLNode[0].Processor  residualAbs  ETV
55	149735 5287 0 23088 0 56000 237 263900 10800000 1304639714 9.7643230515364e+15
vector 59  BasicExample.PHLNode[1].Processor  "power mode"  ETV
59	155022 251 0 22767 0 55000 16 0 2 12 20
vector 60  BasicExample.PHLNode[1].Processor  "Sensor Modules Status"  ETV
60	155273 375 0 21221 0 50000 24 0 1 5 5
vector 61  BasicExample.PHLNode[1].Processor  Voltage  ETV
61	155648 3882 0 23089 0 56000 237 3 3 711 2133
vector 62  BasicExample.PHLNode[1].Processor  residualRelative  ETV
62	159530 7405 0 23089 0 56000 237 0.024435185185185 1 120.79997351852 83.713332060497
vector 63  BasicExample.PHLNode[1].Processor  residualAbs  ETV
63	166935 5287 0 23089 0 56000 237 263900 10800000 1304639714 9.7643230515364e+15
vector 67  BasicExample.TPHLNode[0].Processor  "power mode"  ETV
67	172222 217 0 19498 0 45000 14 0 2 9 15
vector 68  BasicExample.TPHLNode[0].Processor  "Sensor Modules Status"  ETV
68	172439 384 0 17765 0 40000 25 0 1 4 4
vector 69  BasicExample.TPHLNode[0].Processor  Voltage  ETV
69	172823 3373 0 20208 0 47000 208 3 3 624 1872
vector 70  BasicExample.TPHLNode[0].Processor  residualRelative  ETV
70	176196 6406 0 20208 0 47000 208 0.0073842592592593 1 113.4990812963 79.274329100208
vector 71  BasicExample.TPHLNode[0].Processor  residualAbs  ETV
71	182602 4622 0 20208 0 47000 208 79750 10800000 1225790078 9.2465577462483e+15
vector 75  BasicExample.TPHLNode[1].Processor  "power mode"  ETV
75	187224 217 0 19499 0 45000 14 0 2 9 15
vector 76  BasicExample.TPHLNode[1].Processor  "Sensor Modules Status"  ETV
76	187441 384 0 17769 0 40000 25 0 1 4 4
vector 77  BasicExample.TPHLNode[1].Processor  Voltage  ETV
77	187825 3373 0 20209 0 47000 208 3 3 624 1872
vector 78  BasicExample.TPHLNode[1].Processor  residualRelative  ETV
78	191198 6406 0 20209 0 47000 208 0.0073842592592593 1 113.4990812963 79.274329100208
vector 79  BasicExample.TPHLNode[1].Processor  residualAbs  ETV
79	197604 4622 0 20209 0 47000 208 79750 10800000 1225790078 9.2465577462483e+15
vector 80  BasicExample.SensorNode[0].Memory  "Energy Consumptions"  ETV
80	202226 11 0 0 0 0 1 100 100 100 10000
vector 81  BasicExample.SensorNode[0].Memory  "Current use over time"  ETV
81	202237 306 0 29810 0 85000 18 0.3 3 37.8 108.54
vector 82  BasicExample.SensorNode[1].Memory  "Energy Consumptions"  ETV
82	202543 11 0 0 0 0 1 100 100 100 10000
vector 83  BasicExample.SensorNode[1].Memory  "Current use over time"  ETV
83	202554 306 0 29811 0 85000 18 0.3 3 37.8 108.54
vector 84  BasicExample.TNode[0].TemperatureSensor.SensingUnit  "Energy Consumptions"  ETV
84	202860 429 0 26656 0 70000 24 100 100 2400 240000
vector 85  BasicExample.TNode[0].TemperatureSensor.SensingUnit  "Current use over time"  ETV
85	203289 253 0 26650 0 70000 15 0.3 3 31.5 90.45
vector 86  BasicExample.TNode[0].TemperatureSensor.SignalConditioner  "Energy Consumptions"  ETV
86	203542 154 0 26658 0 70000 9 100 100 900 90000
vector 87  BasicExample.TNode[0].TemperatureSensor.SignalConditioner  "Current use over time"  ETV
87	203696 253 0 26650 0 70000 15 0.3 3 31.5 90.45
vector 88  BasicExample.TNode[0].TemperatureSensor.SignalConverter  "Energy Consumptions"  ETV
88	203949 155 0 26660 0 70000 9 100 100 900 90000
vector 89  BasicExample.TNode[0].TemperatureSensor.SignalConverter  "Current use over time"  ETV
89	204104 253 0 26650 0 70000 15 0.3 3 31.5 90.45
vector 90  BasicExample.TNode[0].TemperatureSensor.Transducer  "Energy Consumptions"  ETV
90	204357 155 0 26662 0 70000 9 100 100 900 90000
vector 91  BasicExample.TNode[0].TemperatureSensor.Transducer  "Current use over time"  ETV
91	204512 253 0 26650 0 70000 15 0.3 3 31.5 90.45
vector 92  BasicExample.TNode[0].Memory  "Energy Consumptions"  ETV
92	204765 155 0 26666 0 70000 9 100 100 900 90000
vector 93  BasicExample.TNode[0].Memory  "Current use over time"  ETV
93	204920 253 0 26650 0 70000 15 0.3 3 31.5 90.45
vector 94  BasicExample.TNode[1].TemperatureSensor.SensingUnit  "Energy Consumptions"  ETV
94	205173 429 0 26657 0 70000 24 100 100 2400 240000
vector 95  BasicExample.TNode[1].TemperatureSensor.SensingUnit  "Current use over time"  ETV
95	205602 253 0 26651 0 70000 15 0.3 3 31.5 90.45
vector 96  BasicExample.TNode[1].TemperatureSensor.SignalConditioner  "Energy Consumptions"  ETV
96	205855 154 0 26659 0 70000 9 100 100 900 90000
vector 97  BasicExample.TNode[1].TemperatureSensor.SignalConditioner  "Current use over time"  ETV
97	206009 253 0 26651 0 70000 15 0.3 3 31.5 90.45
vector 98  BasicExample.TNode[1].TemperatureSensor.SignalConverter  "Energy Consumptions"  ETV
98	206262 155 0 26661 0 70000 9 100 100 900 90000
vector 99  BasicExample.TNode[1].TemperatureSensor.SignalConverter  "Current use over time"  ETV
99	206417 253 0 26651 0 70000 15 0.3 3 31.5 90.45
vector 100  BasicExample.TNode[1].TemperatureSensor.Transducer  "Energy Consumptions"  ETV
100	206670 164 0 26663 0 70000 9 100 100 900 90000
vector 101  BasicExample.TNode[1].TemperatureSensor.Transducer  "Current use over time"  ETV
101	206834 268 0 26651 0 70000 15 0.3 3 31.5 90.45
vector 102  BasicExample.TNode[1].Memory  "Energy Consumptions"  ETV
102	207102 164 0 26667 0 70000 9 100 100 900 90000
vector 103  BasicExample.TNode[1].Memory  "Current use over time"  ETV
103	207266 268 0 26651 0 70000 15 0.3 3 31.5 90.45
vector 104  BasicExample.TPNode[0].TemperatureSensor.SensingUnit  "Energy Consumptions"  ETV
104	207534 393 0 24204 0 60000 21 100 100 2100 210000
vector 105  BasicExample.TPNode[0].TemperatureSensor.SensingUnit  "Current use over time"  ETV
105	207927 230 0 24194 0 60000 13 0.3 3 28.2 81.36
vector 106  BasicExample.TPNode[0].TemperatureSensor.SignalConditioner  "Energy Consumptions"  ETV
106	208157 143 0 24210 0 60000 8 100 100 800 80000
vector 107  BasicExample.TPNode[0].TemperatureSensor.SignalConditioner  "Current use over time"  ETV
107	208300 230 0 24194 0 60000 13 0.3 3 28.2 81.36
vector 108  BasicExample.TPNode[0].TemperatureSensor.SignalConverter  "Energy Consumptions"  ETV
108	208530 144 0 24216 0 60000 8 100 100 800 80000
vector 109  BasicExample.TPNode[0].TemperatureSensor.SignalConverter  "Current use over time"  ETV
109	208674 230 0 24194 0 60000 13 0.3 3 28.2 81.36
vector 110  BasicExample.TPNode[0].TemperatureSensor.Transducer  "Energy Consumptions"  ETV
110	208904 144 0 24222 0 60000 8 100 100 800 80000
vector 111  BasicExample.TPNode[0].TemperatureSensor.Transducer  "Current use over time"  ETV
111	209048 230 0 24194 0 60000 13 0.3 3 28.2 81.36
vector 112  BasicExample.TPNode[0].PressureSensor.SensingUnit  "Energy Consumptions"  ETV
112	209278 393 0 24205 0 60000 21 100 100 2100 210000
vector 113  BasicExample.TPNode[0].PressureSensor.SensingUnit  "Current use over time"  ETV
113	209671 230 0 24194 0 60000 13 0.3 3 28.2 81.36
vector 114  BasicExample.TPNode[0].PressureSensor.SignalConditioner  "Energy Consumptions"  ETV
114	209901 143 0 24211 0 60000 8 100 100 800 80000
vector 115  BasicExample.TPNode[0].PressureSensor.SignalConditioner  "Current use over time"  ETV
115	210044 230 0 24194 0 60000 13 0.3 3 28.2 81.36
vector 116  BasicExample.TPNode[0].PressureSensor.SignalConverter  "Energy Consumptions"  ETV
116	210274 144 0 24217 0 60000 8 100 100 800 80000
vector 117  BasicExample.TPNode[0].PressureSensor.SignalConverter  "Current use over time"  ETV
117	210418 230 0 24194 0 60000 13 0.3 3 28.2 81.36
vector 118  BasicExample.TPNode[0].PressureSensor.Transducer  "Energy Consumptions"  ETV
118	210648 144 0 24223 0 60000 8 100 100 800 80000
vector 119  BasicExample.TPNode[0].PressureSensor.Transducer  "Current use over time"  ETV
119	210792 230 0 24194 0 60000 13 0.3 3 28.2 81.36
vector 120  BasicExample.TPNode[0].Memory  "Energy Consumptions"  ETV
120	211022 276 0 24235 0 60000 15 100 100 1500 150000
vector 121  BasicExample.TPNode[0].Memory  "Current use over time"  ETV
121	211298 230 0 24194 0 60000 13 0.3 3 28.2 81.36
vector 122  BasicExample.TPNode[1].TemperatureSensor.SensingUnit  "Energy Consumptions"  ETV
122	211528 393 0 24206 0 60000 21 100 100 2100 210000
vector 123  BasicExample.TPNode[1].TemperatureSensor.SensingUnit  "Current use over time"  ETV
123	211921 230 0 24195 0 60000 13 0.3 3 28.2 81.36
vector 124  BasicExample.TPNode[1].TemperatureSensor.SignalConditioner  "Energy Consumptions"  ETV
124	212151 143 0 24212 0 60000 8 100 100 800 80000
vector 125  BasicExample.TPNode[1].TemperatureSensor.SignalConditioner  "Current use over time"  ETV
125	212294 230 0 24195 0 60000 13 0.3 3 28.2 81.36
vector 126  BasicExample.TPNode[1].TemperatureSensor.SignalConverter  "Energy Consumptions"  ETV
126	212524 144 0 24218 0 60000 8 100 100 800 80000
vector 127  BasicExample.TPNode[1].TemperatureSensor.SignalConverter  "Current use over time"  ETV
127	212668 230 0 24195 0 60000 13 0.3 3 28.2 81.36
vector 128  BasicExample.TPNode[1].TemperatureSensor.Transducer  "Energy Consumptions"  ETV
128	212898 144 0 24224 0 60000 8 100 100 800 80000
vector 129  BasicExample.TPNode[1].TemperatureSensor.Transducer  "Current use over time"  ETV
129	213042 230 0 24195 0 60000 13 0.3 3 28.2 81.36
vector 130  BasicExample.TPNode[1].PressureSensor.SensingUnit  "Energy Consumptions"  ETV
130	213272 393 0 24207 0 60000 21 100 100 2100 210000
vector 131  BasicExample.TPNode[1].PressureSensor.SensingUnit  "Current use over time"  ETV
131	213665 230 0 24195 0 60000 13 0.3 3 28.2 81.36
vector 132  BasicExample.TPNode[1].PressureSensor.SignalConditioner  "Energy Consumptions"  ETV
132	213895 143 0 24213 0 60000 8 100 100 800 80000
vector 133  BasicExample.TPNode[1].PressureSensor.SignalConditioner  "Current use over time"  ETV
133	214038 230 0 24195 0 60000 13 0.3 3 28.2 81.36
vector 134  BasicExample.TPNode[1].PressureSensor.SignalConverter  "Energy Consumptions"  ETV
134	214268 144 0 24219 0 60000 8 100 100 800 80000
vector 135  BasicExample.TPNode[1].PressureSensor.SignalConverter  "Current use over time"  ETV
135	214412 230 0 24195 0 60000 13 0.3 3 28.2 81.36
vector 136  BasicExample.TPNode[1].PressureSensor.Transducer  "Energy Consumptions"  ETV
136	214642 144 0 24225 0 60000 8 100 100 800 80000
vector 137  BasicExample.TPNode[1].PressureSensor.Transducer  "Current use over time"  ETV
137	214786 230 0 24195 0 60000 13 0.3 3 28.2 81.36
vector 138  BasicExample.TPNode[1].Memory  "Energy Consumptions"  ETV
138	215016 276 0 24237 0 60000 15 100 100 1500 150000
vector 139  BasicExample.TPNode[1].Memory  "Current use over time"  ETV
139	215292 230 0 24195 0 60000 13 0.3 3 28.2 81.36
vector 140  BasicExample.PHLNode[0].HumiditySensor.SensingUnit  "Energy Consumptions"  ETV
140	215522 333 0 21168 0 50000 18 100 100 1800 180000
vector 141  BasicExample.PHLNode[0].HumiditySensor.SensingUnit  "Current use over time"  ETV
141	215855 212 0 22766 0 55000 12 0.3 3 25.2 72.36
vector 142  BasicExample.PHLNode[0].HumiditySensor.SignalConditioner  "Energy Consumptions"  ETV
142	216067 123 0 21180 0 50000 7 100 100 700 70000
vector 143  BasicExample.PHLNode[0].HumiditySensor.SignalConditioner  "Current use over time"  ETV
143	216190 212 0 22766 0 55000 12 0.3 3 25.2 72.36
vector 144  BasicExample.PHLNode[0].HumiditySensor.SignalConverter  "Energy Consumptions"  ETV
144	216402 124 0 21192 0 50000 7 100 100 700 70000
vector 145  BasicExample.PHLNode[0].HumiditySensor.SignalConverter  "Current use over time"  ETV
145	216526 212 0 22766 0 55000 12 0.3 3 25.2 72.36
vector 146  BasicExample.PHLNode[0].HumiditySensor.Transducer  "Energy Consumptions"  ETV
146	216738 124 0 21204 0 50000 7 100 100 700 70000
vector 147  BasicExample.PHLNode[0].HumiditySensor.Transducer  "Current use over time"  ETV
147	216862 212 0 22766 0 55000 12 0.3 3 25.2 72.36
vector 148  BasicExample.PHLNode[0].PressureSensor.SensingUnit  "Energy Consumptions"  ETV
148	217074 333 0 21169 0 50000 18 100 100 1800 180000
vector 149  BasicExample.PHLNode[0].PressureSensor.SensingUnit  "Current use over time"  ETV
149	217407 212 0 22766 0 55000 12 0.3 3 25.2 72.36
vector 150  BasicExample.PHLNode[0].PressureSensor.SignalConditioner  "Energy Consumptions"  ETV
150	217619 123 0 21181 0 50000 7 100 100 700 70000
vector 151  BasicExample.PHLNode[0].PressureSensor.SignalConditioner  "Current use over time"  ETV
151	217742 212 0 22766 0 55000 12 0.3 3 25.2 72.36
vector 152  BasicExample.PHLNode[0].PressureSensor.SignalConverter  "Energy Consumptions"  ETV
152	217954 124 0 21193 0 50000 7 100 100 700 70000
vector 153  BasicExample.PHLNode[0].PressureSensor.SignalConverter  "Current use over time"  ETV
153	218078 212 0 22766 0 55000 12 0.3 3 25.2 72.36
vector 154  BasicExample.PHLNode[0].PressureSensor.Transducer  "Energy Consumptions"  ETV
154	218290 124 0 21205 0 50000 7 100 100 700 70000
vector 155  BasicExample.PHLNode[0].PressureSensor.Transducer  "Current use over time"  ETV
155	218414 212 0 22766 0 55000 12 0.3 3 25.2 72.36
vector 156  BasicExample.PHLNode[0].LightSensor.SensingUnit  "Energy Consumptions"  ETV
156	218626 333 0 21170 0 50000 18 100 100 1800 180000
vector 157  BasicExample.PHLNode[0].LightSensor.SensingUnit  "Current use over time"  ETV
157	218959 212 0 22766 0 55000 12 0.3 3 25.2 72.36
vector 158  BasicExample.PHLNode[0].LightSensor.SignalConditioner  "Energy Consumptions"  ETV
158	219171 124 0 21182 0 50000 7 100 100 700 70000
vector 159  BasicExample.PHLNode[0].LightSensor.SignalConditioner  "Current use over time"  ETV
159	219295 212 0 22766 0 55000 12 0.3 3 25.2 72.36
vector 160  BasicExample.PHLNode[0].LightSensor.SignalConverter  "Energy Consumptions"  ETV
160	219507 124 0 21194 0 50000 7 100 100 700 70000
vector 161  BasicExample.PHLNode[0].LightSensor.SignalConverter  "Current use over time"  ETV
161	219631 212 0 22766 0 55000 12 0.3 3 25.2 72.36
vector 162  BasicExample.PHLNode[0].LightSensor.Transducer  "Energy Consumptions"  ETV
162	219843 124 0 21206 0 50000 7 100 100 700 70000
vector 163  BasicExample.PHLNode[0].LightSensor.Transducer  "Current use over time"  ETV
163	219967 212 0 22766 0 55000 12 0.3 3 25.2 72.36
vector 164  BasicExample.PHLNode[0].Memory  "Energy Consumptions"  ETV
164	220179 348 0 21230 0 50000 19 100 100 1900 190000
vector 165  BasicExample.PHLNode[0].Memory  "Current use over time"  ETV
165	220527 212 0 22766 0 55000 12 0.3 3 25.2 72.36
vector 166  BasicExample.PHLNode[1].HumiditySensor.SensingUnit  "Energy Consumptions"  ETV
166	220739 333 0 21171 0 50000 18 100 100 1800 180000
vector 167  BasicExample.PHLNode[1].HumiditySensor.SensingUnit  "Current use over time"  ETV
167	221072 212 0 22767 0 55000 12 0.3 3 25.2 72.36
vector 168  BasicExample.PHLNode[1].HumiditySensor.SignalConditioner  "Energy Consumptions"  ETV
168	221284 124 0 21183 0 50000 7 100 100 700 70000
vector 169  BasicExample.PHLNode[1].HumiditySensor.SignalConditioner  "Current use over time"  ETV
169	221408 212 0 22767 0 55000 12 0.3 3 25.2 72.36
vector 170  BasicExample.PHLNode[1].HumiditySensor.SignalConverter  "Energy Consumptions"  ETV
170	221620 124 0 21195 0 50000 7 100 100 700 70000
vector 171  BasicExample.PHLNode[1].HumiditySensor.SignalConverter  "Current use over time"  ETV
171	221744 212 0 22767 0 55000 12 0.3 3 25.2 72.36
vector 172  BasicExample.PHLNode[1].HumiditySensor.Transducer  "Energy Consumptions"  ETV
172	221956 124 0 21207 0 50000 7 100 100 700 70000
vector 173  BasicExample.PHLNode[1].HumiditySensor.Transducer  "Current use over time"  ETV
173	222080 212 0 22767 0 55000 12 0.3 3 25.2 72.36
vector 174  BasicExample.PHLNode[1].PressureSensor.SensingUnit  "Energy Consumptions"  ETV
174	222292 333 0 21172 0 50000 18 100 100 1800 180000
vector 175  BasicExample.PHLNode[1].PressureSensor.SensingUnit  "Current use over time"  ETV
175	222625 212 0 22767 0 55000 12 0.3 3 25.2 72.36
vector 176  BasicExample.PHLNode[1].PressureSensor.SignalConditioner  "Energy Consumptions"  ETV
176	222837 124 0 21184 0 50000 7 100 100 700 70000
vector 177  BasicExample.PHLNode[1].PressureSensor.SignalConditioner  "Current use over time"  ETV
177	222961 212 0 22767 0 55000 12 0.3 3 25.2 72.36
vector 178  BasicExample.PHLNode[1].PressureSensor.SignalConverter  "Energy Consumptions"  ETV
178	223173 124 0 21196 0 50000 7 100 100 700 70000
vector 179  BasicExample.PHLNode[1].PressureSensor.SignalConverter  "Current use over time"  ETV
179	223297 212 0 22767 0 55000 12 0.3 3 25.2 72.36
vector 180  BasicExample.PHLNode[1].PressureSensor.Transducer  "Energy Consumptions"  ETV
180	223509 124 0 21208 0 50000 7 100 100 700 70000
vector 181  BasicExample.PHLNode[1].PressureSensor.Transducer  "Current use over time"  ETV
181	223633 212 0 22767 0 55000 12 0.3 3 25.2 72.36
vector 182  BasicExample.PHLNode[1].LightSensor.SensingUnit  "Energy Consumptions"  ETV
182	223845 333 0 21173 0 50000 18 100 100 1800 180000
vector 183  BasicExample.PHLNode[1].LightSensor.SensingUnit  "Current use over time"  ETV
183	224178 212 0 22767 0 55000 12 0.3 3 25.2 72.36
vector 184  BasicExample.PHLNode[1].LightSensor.SignalConditioner  "Energy Consumptions"  ETV
184	224390 124 0 21185 0 50000 7 100 100 700 70000
vector 185  BasicExample.PHLNode[1].LightSensor.SignalConditioner  "Current use over time"  ETV
185	224514 212 0 22767 0 55000 12 0.3 3 25.2 72.36
vector 186  BasicExample.PHLNode[1].LightSensor.SignalConverter  "Energy Consumptions"  ETV
186	224726 124 0 21197 0 50000 7 100 100 700 70000
vector 187  BasicExample.PHLNode[1].LightSensor.SignalConverter  "Current use over time"  ETV
187	224850 212 0 22767 0 55000 12 0.3 3 25.2 72.36
vector 188  BasicExample.PHLNode[1].LightSensor.Transducer  "Energy Consumptions"  ETV
188	225062 124 0 21209 0 50000 7 100 100 700 70000
vector 189  BasicExample.PHLNode[1].LightSensor.Transducer  "Current use over time"  ETV
189	225186 212 0 22767 0 55000 12 0.3 3 25.2 72.36
vector 190  BasicExample.PHLNode[1].Memory  "Energy Consumptions"  ETV
190	225398 348 0 21233 0 50000 19 100 100 1900 190000
vector 191  BasicExample.PHLNode[1].Memory  "Current use over time"  ETV
191	225746 212 0 22767 0 55000 12 0.3 3 25.2 72.36
vector 192  BasicExample.TPHLNode[0].TemperatureSensor.SensingUnit  "Energy Consumptions"  ETV
192	225958 273 0 17682 0 40000 15 100 100 1500 150000
vector 193  BasicExample.TPHLNode[0].TemperatureSensor.SensingUnit  "Current use over time"  ETV
193	226231 174 0 19498 0 45000 10 0.3 3 21.9 63.27
vector 194  BasicExample.TPHLNode[0].TemperatureSensor.SignalConditioner  "Energy Consumptions"  ETV
194	226405 104 0 17702 0 40000 6 100 100 600 60000
vector 195  BasicExample.TPHLNode[0].TemperatureSensor.SignalConditioner  "Current use over time"  ETV
195	226509 174 0 19498 0 45000 10 0.3 3 21.9 63.27
vector 196  BasicExample.TPHLNode[0].TemperatureSensor.SignalConverter  "Energy Consumptions"  ETV
196	226683 104 0 17722 0 40000 6 100 100 600 60000
vector 197  BasicExample.TPHLNode[0].TemperatureSensor.SignalConverter  "Current use over time"  ETV
197	226787 174 0 19498 0 45000 10 0.3 3 21.9 63.27
vector 198  BasicExample.TPHLNode[0].TemperatureSensor.Transducer  "Energy Consumptions"  ETV
198	226961 104 0 17742 0 40000 6 100 100 600 60000
vector 199  BasicExample.TPHLNode[0].TemperatureSensor.Transducer  "Current use over time"  ETV
199	227065 174 0 19498 0 45000 10 0.3 3 21.9 63.27
vector 200  BasicExample.TPHLNode[0].HumiditySensor.SensingUnit  "Energy Consumptions"  ETV
200	227239 273 0 17683 0 40000 15 100 100 1500 150000
vector 201  BasicExample.TPHLNode[0].HumiditySensor.SensingUnit  "Current use over time"  ETV
201	227512 174 0 19498 0 45000 10 0.3 3 21.9 63.27
vector 202  BasicExample.TPHLNode[0].HumiditySensor.SignalConditioner  "Energy Consumptions"  ETV
202	227686 104 0 17703 0 40000 6 100 100 600 60000
vector 203  BasicExample.TPHLNode[0].HumiditySensor.SignalConditioner  "Current use over time"  ETV
203	227790 174 0 19498 0 45000 10 0.3 3 21.9 63.27
vector 204  BasicExample.TPHLNode[0].HumiditySensor.SignalConverter  "Energy Consumptions"  ETV
204	227964 104 0 17723 0 40000 6 100 100 600 60000
vector 205  BasicExample.TPHLNode[0].HumiditySensor.SignalConverter  "Current use over time"  ETV
205	228068 174 0 19498 0 45000 10 0.3 3 21.9 63.27
vector 206  BasicExample.TPHLNode[0].HumiditySensor.Transducer  "Energy Consumptions"  ETV
206	228242 104 0 17743 0 40000 6 100 100 600 60000
vector 207  BasicExample.TPHLNode[0].HumiditySensor.Transducer  "Current use over time"  ETV
207	228346 174 0 19498 0 45000 10 0.3 3 21.9 63.27
vector 208  BasicExample.TPHLNode[0].PressureSensor.SensingUnit  "Energy Consumptions"  ETV
208	228520 273 0 17684 0 40000 15 100 100 1500 150000
vector 209  BasicExample.TPHLNode[0].PressureSensor.SensingUnit  "Current use over time"  ETV
209	228793 174 0 19498 0 45000 10 0.3 3 21.9 63.27
vector 210  BasicExample.TPHLNode[0].PressureSensor.SignalConditioner  "Energy Consumptions"  ETV
210	228967 104 0 17704 0 40000 6 100 100 600 60000
vector 211  BasicExample.TPHLNode[0].PressureSensor.SignalConditioner  "Current use over time"  ETV
211	229071 174 0 19498 0 45000 10 0.3 3 21.9 63.27
vector 212  BasicExample.TPHLNode[0].PressureSensor.SignalConverter  "Energy Consumptions"  ETV
212	229245 104 0 17724 0 40000 6 100 100 600 60000
vector 213  BasicExample.TPHLNode[0].PressureSensor.SignalConverter  "Current use over time"  ETV
213	229349 174 0 19498 0 45000 10 0.3 3 21.9 63.27
vector 214  BasicExample.TPHLNode[0].PressureSensor.Transducer  "Energy Consumptions"  ETV
214	229523 104 0 17744 0 40000 6 100 100 600 60000
vector 215  BasicExample.TPHLNode[0].PressureSensor.Transducer  "Current use over time"  ETV
215	229627 174 0 19498 0 45000 10 0.3 3 21.9 63.27
vector 216  BasicExample.TPHLNode[0].LightSensor.SensingUnit  "Energy Consumptions"  ETV
216	229801 273 0 17685 0 40000 15 100 100 1500 150000
vector 217  BasicExample.TPHLNode[0].LightSensor.SensingUnit  "Current use over time"  ETV
217	230074 174 0 19498 0 45000 10 0.3 3 21.9 63.27
vector 218  BasicExample.TPHLNode[0].LightSensor.SignalConditioner  "Energy Consumptions"  ETV
218	230248 104 0 17705 0 40000 6 100 100 600 60000
vector 219  BasicExample.TPHLNode[0].LightSensor.SignalConditioner  "Current use over time"  ETV
219	230352 174 0 19498 0 45000 10 0.3 3 21.9 63.27
vector 220  BasicExample.TPHLNode[0].LightSensor.SignalConverter  "Energy Consumptions"  ETV
220	230526 104 0 17725 0 40000 6 100 100 600 60000
vector 221  BasicExample.TPHLNode[0].LightSensor.SignalConverter  "Current use over time"  ETV
221	230630 174 0 19498 0 45000 10 0.3 3 21.9 63.27
vector 222  BasicExample.TPHLNode[0].LightSensor.Transducer  "Energy Consumptions"  ETV
222	230804 104 0 17745 0 40000 6 100 100 600 60000
vector 223  BasicExample.TPHLNode[0].LightSensor.Transducer  "Current use over time"  ETV
223	230908 174 0 19498 0 45000 10 0.3 3 21.9 63.27
vector 224  BasicExample.TPHLNode[0].Memory  "Energy Consumptions"  ETV
224	231082 380 0 17785 0 40000 21 100 100 2100 210000
vector 225  BasicExample.TPHLNode[0].Memory  "Current use over time"  ETV
225	231462 174 0 19498 0 45000 10 0.3 3 21.9 63.27
vector 226  BasicExample.TPHLNode[1].TemperatureSensor.SensingUnit  "Energy Consumptions"  ETV
226	231636 273 0 17686 0 40000 15 100 100 1500 150000
vector 227  BasicExample.TPHLNode[1].TemperatureSensor.SensingUnit  "Current use over time"  ETV
227	231909 174 0 19499 0 45000 10 0.3 3 21.9 63.27
vector 228  BasicExample.TPHLNode[1].TemperatureSensor.SignalConditioner  "Energy Consumptions"  ETV
228	232083 104 0 17706 0 40000 6 100 100 600 60000
vector 229  BasicExample.TPHLNode[1].TemperatureSensor.SignalConditioner  "Current use over time"  ETV
229	232187 174 0 19499 0 45000 10 0.3 3 21.9 63.27
vector 230  BasicExample.TPHLNode[1].TemperatureSensor.SignalConverter  "Energy Consumptions"  ETV
230	232361 104 0 17726 0 40000 6 100 100 600 60000
vector 231  BasicExample.TPHLNode[1].TemperatureSensor.SignalConverter  "Current use over time"  ETV
231	232465 174 0 19499 0 45000 10 0.3 3 21.9 63.27
vector 232  BasicExample.TPHLNode[1].TemperatureSensor.Transducer  "Energy Consumptions"  ETV
232	232639 104 0 17746 0 40000 6 100 100 600 60000
vector 233  BasicExample.TPHLNode[1].TemperatureSensor.Transducer  "Current use over time"  ETV
233	232743 174 0 19499 0 45000 10 0.3 3 21.9 63.27
vector 234  BasicExample.TPHLNode[1].HumiditySensor.SensingUnit  "Energy Consumptions"  ETV
234	232917 273 0 17687 0 40000 15 100 100 1500 150000
vector 235  BasicExample.TPHLNode[1].HumiditySensor.SensingUnit  "Current use over time"  ETV
235	233190 174 0 19499 0 45000 10 0.3 3 21.9 63.27
vector 236  BasicExample.TPHLNode[1].HumiditySensor.SignalConditioner  "Energy Consumptions"  ETV
236	233364 104 0 17707 0 40000 6 100 100 600 60000
vector 237  BasicExample.TPHLNode[1].HumiditySensor.SignalConditioner  "Current use over time"  ETV
237	233468 174 0 19499 0 45000 10 0.3 3 21.9 63.27
vector 238  BasicExample.TPHLNode[1].HumiditySensor.SignalConverter  "Energy Consumptions"  ETV
238	233642 104 0 17727 0 40000 6 100 100 600 60000
vector 239  BasicExample.TPHLNode[1].HumiditySensor.SignalConverter  "Current use over time"  ETV
239	233746 174 0 19499 0 45000 10 0.3 3 21.9 63.27
vector 240  BasicExample.TPHLNode[1].HumiditySensor.Transducer  "Energy Consumptions"  ETV
240	233920 104 0 17747 0 40000 6 100 100 600 60000
vector 241  BasicExample.TPHLNode[1].HumiditySensor.Transducer  "Current use over time"  ETV
241	234024 174 0 19499 0 45000 10 0.3 3 21.9 63.27
vector 242  BasicExample.TPHLNode[1].PressureSensor.SensingUnit  "Energy Consumptions"  ETV