version 2
run General-0-20150511-14:05:46-18070
attr configname General
attr datetime 20150511-14:05:46
attr experiment General
attr inifile omnetpp.ini
attr iterationvars ""
attr iterationvars2 $repetition=0
attr measurement ""
attr network BasicExample
attr processid 18070
attr repetition 0
attr replication #0
attr resultdir results
attr runnumber 0
attr seedset 0

vector 3  BasicExample.SensorNode[0].Processor  Voltage  ETV
vector 4  BasicExample.SensorNode[0].Processor  residualRelative  ETV
vector 5  BasicExample.SensorNode[0].Processor  residualAbs  ETV
vector 9  BasicExample.SensorNode[1].Processor  Voltage  ETV
vector 10  BasicExample.SensorNode[1].Processor  residualRelative  ETV
vector 11  BasicExample.SensorNode[1].Processor  residualAbs  ETV
vector 15  BasicExample.SensorNode[2].Processor  Voltage  ETV
vector 16  BasicExample.SensorNode[2].Processor  residualRelative  ETV
vector 17  BasicExample.SensorNode[2].Processor  residualAbs  ETV
vector 21  BasicExample.SensorNode[3].Processor  Voltage  ETV
vector 22  BasicExample.SensorNode[3].Processor  residualRelative  ETV
vector 23  BasicExample.SensorNode[3].Processor  residualAbs  ETV
vector 27  BasicExample.SensorNode[4].Processor  Voltage  ETV
vector 28  BasicExample.SensorNode[4].Processor  residualRelative  ETV
vector 29  BasicExample.SensorNode[4].Processor  residualAbs  ETV
vector 33  BasicExample.SensorNode[5].Processor  Voltage  ETV
vector 34  BasicExample.SensorNode[5].Processor  residualRelative  ETV
vector 35  BasicExample.SensorNode[5].Processor  residualAbs  ETV
vector 39  BasicExample.SensorNode[6].Processor  Voltage  ETV
vector 40  BasicExample.SensorNode[6].Processor  residualRelative  ETV
vector 41  BasicExample.SensorNode[6].Processor  residualAbs  ETV
vector 45  BasicExample.SensorNode[7].Processor  Voltage  ETV
vector 46  BasicExample.SensorNode[7].Processor  residualRelative  ETV
vector 47  BasicExample.SensorNode[7].Processor  residualAbs  ETV
vector 51  BasicExample.SensorNode[8].Processor  Voltage  ETV
vector 52  BasicExample.SensorNode[8].Processor  residualRelative  ETV
vector 53  BasicExample.SensorNode[8].Processor  residualAbs  ETV
vector 57  BasicExample.SensorNode[9].Processor  Voltage  ETV
vector 58  BasicExample.SensorNode[9].Processor  residualRelative  ETV
vector 59  BasicExample.SensorNode[9].Processor  residualAbs  ETV
vector 63  BasicExample.TempNode[0].Processor  Voltage  ETV
vector 64  BasicExample.TempNode[0].Processor  residualRelative  ETV
vector 65  BasicExample.TempNode[0].Processor  residualAbs  ETV
vector 69  BasicExample.TempNode[1].Processor  Voltage  ETV
vector 70  BasicExample.TempNode[1].Processor  residualRelative  ETV
vector 71  BasicExample.TempNode[1].Processor  residualAbs  ETV
vector 75  BasicExample.TempNode[2].Processor  Voltage  ETV
vector 76  BasicExample.TempNode[2].Processor  residualRelative  ETV
vector 77  BasicExample.TempNode[2].Processor  residualAbs  ETV
vector 81  BasicExample.TempNode[3].Processor  Voltage  ETV
vector 82  BasicExample.TempNode[3].Processor  residualRelative  ETV
vector 83  BasicExample.TempNode[3].Processor  residualAbs  ETV
vector 87  BasicExample.TempNode[4].Processor  Voltage  ETV
vector 88  BasicExample.TempNode[4].Processor  residualRelative  ETV
vector 89  BasicExample.TempNode[4].Processor  residualAbs  ETV
vector 93  BasicExample.TempNode[5].Processor  Voltage  ETV
vector 94  BasicExample.TempNode[5].Processor  residualRelative  ETV
vector 95  BasicExample.TempNode[5].Processor  residualAbs  ETV
vector 99  BasicExample.TempNode[6].Processor  Voltage  ETV
vector 100  BasicExample.TempNode[6].Processor  residualRelative  ETV
vector 101  BasicExample.TempNode[6].Processor  residualAbs  ETV
vector 105  BasicExample.TempNode[7].Processor  Voltage  ETV
vector 106  BasicExample.TempNode[7].Processor  residualRelative  ETV
vector 107  BasicExample.TempNode[7].Processor  residualAbs  ETV
vector 111  BasicExample.TempNode[8].Processor  Voltage  ETV
vector 112  BasicExample.TempNode[8].Processor  residualRelative  ETV
vector 113  BasicExample.TempNode[8].Processor  residualAbs  ETV
vector 117  BasicExample.TempNode[9].Processor  Voltage  ETV
vector 118  BasicExample.TempNode[9].Processor  residualRelative  ETV
vector 119  BasicExample.TempNode[9].Processor  residualAbs  ETV
vector 123  BasicExample.AllNode[0].Processor  Voltage  ETV
vector 124  BasicExample.AllNode[0].Processor  residualRelative  ETV
vector 125  BasicExample.AllNode[0].Processor  residualAbs  ETV
vector 129  BasicExample.AllNode[1].Processor  Voltage  ETV
vector 130  BasicExample.AllNode[1].Processor  residualRelative  ETV
vector 131  BasicExample.AllNode[1].Processor  residualAbs  ETV
vector 135  BasicExample.AllNode[2].Processor  Voltage  ETV
vector 136  BasicExample.AllNode[2].Processor  residualRelative  ETV
vector 137  BasicExample.AllNode[2].Processor  residualAbs  ETV
vector 141  BasicExample.AllNode[3].Processor  Voltage  ETV
vector 142  BasicExample.AllNode[3].Processor  residualRelative  ETV
vector 143  BasicExample.AllNode[3].Processor  residualAbs  ETV
vector 147  BasicExample.AllNode[4].Processor  Voltage  ETV
vector 148  BasicExample.AllNode[4].Processor  residualRelative  ETV
vector 149  BasicExample.AllNode[4].Processor  residualAbs  ETV
vector 153  BasicExample.AllNode[5].Processor  Voltage  ETV
vector 154  BasicExample.AllNode[5].Processor  residualRelative  ETV
vector 155  BasicExample.AllNode[5].Processor  residualAbs  ETV
vector 159  BasicExample.AllNode[6].Processor  Voltage  ETV
vector 160  BasicExample.AllNode[6].Processor  residualRelative  ETV
vector 161  BasicExample.AllNode[6].Processor  residualAbs  ETV
vector 165  BasicExample.AllNode[7].Processor  Voltage  ETV
vector 166  BasicExample.AllNode[7].Processor  residualRelative  ETV
vector 167  BasicExample.AllNode[7].Processor  residualAbs  ETV
vector 171  BasicExample.AllNode[8].Processor  Voltage  ETV
vector 172  BasicExample.AllNode[8].Processor  residualRelative  ETV
vector 173  BasicExample.AllNode[8].Processor  residualAbs  ETV
vector 177  BasicExample.AllNode[9].Processor  Voltage  ETV
vector 178  BasicExample.AllNode[9].Processor  residualRelative  ETV
vector 179  BasicExample.AllNode[9].Processor  residualAbs  ETV
3	0	0	3
3	5950	5000	3
3	5950	5000	3
3	5950	5000	3
3	11791	10000	3
3	11791	10000	3
3	11841	10000	3
3	11841	10000	3
3	11841	10000	3
3	17718	15000	3
3	17718	15000	3
3	17718	15000	3
3	23430	20000	3
3	23430	20000	3
3	23480	20000	3
3	23480	20000	3
3	23480	20000	3
3	29417	25000	3
3	29417	25000	3
3	29417	25000	3
3	35159	30000	3
3	35159	30000	3
3	35209	30000	3
3	35209	30000	3
3	35209	30000	3
3	41041	35000	3
3	41041	35000	3
3	41041	35000	3
3	47020	40000	3
3	47020	40000	3
3	47070	40000	3
3	47070	40000	3
3	47070	40000	3
3	53196	45000	3
3	53196	45000	3
3	53196	45000	3
3	58752	50000	3
3	58752	50000	3
4	0	0	1
4	5950	5000	0.96818333333333
4	5950	5000	0.96818333333333
4	5950	5000	0.96803703703704
4	11791	10000	0.93609259259259
4	11791	10000	0.9360787037037
4	11841	10000	0.9360787037037
4	11841	10000	0.9360787037037
4	11841	10000	0.93606481481481
4	17718	15000	0.93428092592593
4	17718	15000	0.93428092592593
4	17718	15000	0.93424537037037
4	23430	20000	0.93243981481481
4	23430	20000	0.93241666666667
4	23480	20000	0.93241666666667
4	23480	20000	0.93241666666667
4	23480	20000	0.93239351851852
4	29417	25000	0.79048240740741
4	29417	25000	0.79048240740741
4	29417	25000	0.78931481481481
4	35159	30000	0.64625925925926
4	35159	30000	0.64624074074074
4	35209	30000	0.64624074074074
4	35209	30000	0.64624074074074
4	35209	30000	0.64622222222222
4	41041	35000	0.61440555555556
4	41041	35000	0.61440555555556
4	41041	35000	0.61425925925926
4	47020	40000	0.58231481481481
4	47020	40000	0.58230092592593
4	47070	40000	0.58230092592593
4	47070	40000	0.58230092592593
4	47070	40000	0.58228703703704
4	53196	45000	0.58050314814815
4	53196	45000	0.58050314814815
4	53196	45000	0.58046759259259
4	58752	50000	0.57866203703704
4	58752	50000	0.57863888888889
5	0	0	10800000
5	5950	5000	10456380
5	5950	5000	10456380
5	5950	5000	10454800
5	11791	10000	10109800
5	11791	10000	10109650
5	11841	10000	10109650
5	11841	10000	10109650
5	11841	10000	10109500
5	17718	15000	10090234
5	17718	15000	10090234
5	17718	15000	10089850
5	23430	20000	10070350
5	23430	20000	10070100
5	23480	20000	10070100
5	23480	20000	10070100
5	23480	20000	10069850
5	29417	25000	8537210
5	29417	25000	8537210
5	29417	25000	8524600
5	35159	30000	6979600
5	35159	30000	6979400
5	35209	30000	6979400
5	35209	30000	6979400
5	35209	30000	6979200
5	41041	35000	6635580
5	41041	35000	6635580
5	41041	35000	6634000
5	47020	40000	6289000
5	47020	40000	6288850
5	47070	40000	6288850
5	47070	40000	6288850
5	47070	40000	6288700
5	53196	45000	6269434
5	53196	45000	6269434
5	53196	45000	6269050
5	58752	50000	6249550
5	58752	50000	6249300
9	0	0	3
9	5951	5000	3
9	5951	5000	3
9	5951	5000	3
9	11792	10000	3
9	11792	10000	3
9	11842	10000	3
9	11842	10000	3
9	11842	10000	3
9	17719	15000	3
9	17719	15000	3
9	17719	15000	3
9	23431	20000	3
9	23431	20000	3
9	23481	20000	3
9	23481	20000	3
9	23481	20000	3
9	29418	25000	3
9	29418	25000	3
9	29418	25000	3
9	35160	30000	3
9	35160	30000	3
9	35210	30000	3
9	35210	30000	3
9	35210	30000	3
9	41042	35000	3
9	41042	35000	3
9	41042	35000	3
9	47021	40000	3
9	47021	40000	3
9	47071	40000	3
9	47071	40000	3
9	47071	40000	3
9	53197	45000	3
9	53197	45000	3
9	53197	45000	3
10	0	0	1
10	5951	5000	0.96818333333333
10	5951	5000	0.96818333333333
10	5951	5000	0.96803703703704
10	11792	10000	0.93609259259259
10	11792	10000	0.9360787037037
10	11842	10000	0.9360787037037
10	11842	10000	0.9360787037037
10	11842	10000	0.93606481481481
10	17719	15000	0.93428092592593
10	17719	15000	0.93428092592593
10	17719	15000	0.93424537037037
10	23431	20000	0.93243981481481
10	23431	20000	0.93241666666667
10	23481	20000	0.93241666666667
10	23481	20000	0.93241666666667
10	23481	20000	0.93239351851852
10	29418	25000	0.79048240740741
10	29418	25000	0.79048240740741
10	29418	25000	0.78931481481481
10	35160	30000	0.64625925925926
10	35160	30000	0.64624074074074
10	35210	30000	0.64624074074074
10	35210	30000	0.64624074074074
10	35210	30000	0.64622222222222
10	41042	35000	0.61440555555556
10	41042	35000	0.61440555555556
10	41042	35000	0.61425925925926
10	47021	40000	0.58231481481481
10	47021	40000	0.58230092592593
10	47071	40000	0.58230092592593
10	47071	40000	0.58230092592593
10	47071	40000	0.58228703703704
10	53197	45000	0.58050314814815
10	53197	45000	0.58050314814815
10	53197	45000	0.58046759259259
11	0	0	10800000
11	5951	5000	10456380
11	5951	5000	10456380
11	5951	5000	10454800
11	11792	10000	10109800
11	11792	10000	10109650
11	11842	10000	10109650
11	11842	10000	10109650
11	11842	10000	10109500
11	17719	15000	10090234
11	17719	15000	10090234
11	17719	15000	10089850
11	23431	20000	10070350
11	23431	20000	10070100
11	23481	20000	10070100
11	23481	20000	10070100
11	23481	20000	10069850
11	29418	25000	8537210
11	29418	25000	8537210
11	29418	25000	8524600
11	35160	30000	6979600
11	35160	30000	6979400
11	35210	30000	6979400
11	35210	30000	6979400
11	35210	30000	6979200
11	41042	35000	6635580
11	41042	35000	6635580
11	41042	35000	6634000
11	47021	40000	6289000
11	47021	40000	6288850
11	47071	40000	6288850
11	47071	40000	6288850
11	47071	40000	6288700
11	53197	45000	6269434
11	53197	45000	6269434
11	53197	45000	6269050
15	0	0	3
15	5952	5000	3
15	5952	5000	3
15	5952	5000	3
15	11793	10000	3
15	11793	10000	3
15	11843	10000	3
15	11843	10000	3
15	11843	10000	3
15	17720	15000	3
15	17720	15000	3
15	17720	15000	3
15	23432	20000	3
15	23432	20000	3
15	23482	20000	3
15	23482	20000	3
15	23482	20000	3
15	29419	25000	3
15	29419	25000	3
15	29419	25000	3
15	35161	30000	3
15	35161	30000	3
15	35211	30000	3
15	35211	30000	3
15	35211	30000	3
15	41043	35000	3
15	41043	35000	3
15	41043	35000	3
15	47022	40000	3
15	47022	40000	3
15	47072	40000	3
15	47072	40000	3
15	47072	40000	3
15	53198	45000	3
15	53198	45000	3
15	53198	45000	3
16	0	0	1
16	5952	5000	0.96818333333333
16	5952	5000	0.96818333333333
16	5952	5000	0.96803703703704
16	11793	10000	0.93609259259259
16	11793	10000	0.9360787037037
16	11843	10000	0.9360787037037
16	11843	10000	0.9360787037037
16	11843	10000	0.93606481481481
16	17720	15000	0.93428092592593
16	17720	15000	0.93428092592593
16	17720	15000	0.93424537037037
16	23432	20000	0.93243981481481
16	23432	20000	0.93241666666667
16	23482	20000	0.93241666666667
16	23482	20000	0.93241666666667
16	23482	20000	0.93239351851852
16	29419	25000	0.79048240740741
16	29419	25000	0.79048240740741
16	29419	25000	0.78931481481481
16	35161	30000	0.64625925925926
16	35161	30000	0.64624074074074
16	35211	30000	0.64624074074074
16	35211	30000	0.64624074074074
16	35211	30000	0.64622222222222
16	41043	35000	0.61440555555556
16	41043	35000	0.61440555555556
16	41043	35000	0.61425925925926
16	47022	40000	0.58231481481481
16	47022	40000	0.58230092592593
16	47072	40000	0.58230092592593
16	47072	40000	0.58230092592593
16	47072	40000	0.58228703703704
16	53198	45000	0.58050314814815
16	53198	45000	0.58050314814815
16	53198	45000	0.58046759259259
17	0	0	10800000
17	5952	5000	10456380
17	5952	5000	10456380
17	5952	5000	10454800
17	11793	10000	10109800
17	11793	10000	10109650
17	11843	10000	10109650
17	11843	10000	10109650
17	11843	10000	10109500
17	17720	15000	10090234
17	17720	15000	10090234
17	17720	15000	10089850
17	23432	20000	10070350
17	23432	20000	10070100
17	23482	20000	10070100
17	23482	20000	10070100
17	23482	20000	10069850
17	29419	25000	8537210
17	29419	25000	8537210
17	29419	25000	8524600
17	35161	30000	6979600
17	35161	30000	6979400
17	35211	30000	6979400
17	35211	30000	6979400
17	35211	30000	6979200
17	41043	35000	6635580
17	41043	35000	6635580
17	41043	35000	6634000
17	47022	40000	6289000
17	47022	40000	6288850
17	47072	40000	6288850
17	47072	40000	6288850
17	47072	40000	6288700
17	53198	45000	6269434
17	53198	45000	6269434
17	53198	45000	6269050
21	0	0	3
21	5953	5000	3
21	5953	5000	3
21	5953	5000	3
21	11794	10000	3
21	11794	10000	3
21	11844	10000	3
21	11844	10000	3
21	11844	10000	3
21	17721	15000	3
21	17721	15000	3
21	17721	15000	3
21	23433	20000	3
21	23433	20000	3
21	23483	20000	3
21	23483	20000	3
21	23483	20000	3
21	29420	25000	3
21	29420	25000	3
21	29420	25000	3
21	35162	30000	3
21	35162	30000	3
21	35212	30000	3
21	35212	30000	3
21	35212	30000	3
21	41044	35000	3
21	41044	35000	3
21	41044	35000	3
21	47023	40000	3
21	47023	40000	3
21	47073	40000	3
21	47073	40000	3
21	47073	40000	3
21	53199	45000	3
21	53199	45000	3
21	53199	45000	3
22	0	0	1
22	5953	5000	0.96818333333333
22	5953	5000	0.96818333333333
22	5953	5000	0.96803703703704
22	11794	10000	0.93609259259259
22	11794	10000	0.9360787037037
22	11844	10000	0.9360787037037
22	11844	10000	0.9360787037037
22	11844	10000	0.93606481481481
22	17721	15000	0.93428092592593
22	17721	15000	0.93428092592593
22	17721	15000	0.93424537037037
22	23433	20000	0.93243981481481
22	23433	20000	0.93241666666667
22	23483	20000	0.93241666666667
22	23483	20000	0.93241666666667
22	23483	20000	0.93239351851852
22	29420	25000	0.79048240740741
22	29420	25000	0.79048240740741
22	29420	25000	0.78931481481481
22	35162	30000	0.64625925925926
22	35162	30000	0.64624074074074
22	35212	30000	0.64624074074074
22	35212	30000	0.64624074074074
22	35212	30000	0.64622222222222
22	41044	35000	0.61440555555556
22	41044	35000	0.61440555555556
22	41044	35000	0.61425925925926
22	47023	40000	0.58231481481481
22	47023	40000	0.58230092592593
22	47073	40000	0.58230092592593
22	47073	40000	0.58230092592593
22	47073	40000	0.58228703703704
22	53199	45000	0.58050314814815
22	53199	45000	0.58050314814815
22	53199	45000	0.58046759259259
23	0	0	10800000
23	5953	5000	10456380
23	5953	5000	10456380
23	5953	5000	10454800
23	11794	10000	10109800
23	11794	10000	10109650
23	11844	10000	10109650
23	11844	10000	10109650
23	11844	10000	10109500
23	17721	15000	10090234
23	17721	15000	10090234
23	17721	15000	10089850
23	23433	20000	10070350
23	23433	20000	10070100
23	23483	20000	10070100
23	23483	20000	10070100
23	23483	20000	10069850
23	29420	25000	8537210
23	29420	25000	8537210
23	29420	25000	8524600
23	35162	30000	6979600
23	35162	30000	6979400
23	35212	30000	6979400
23	35212	30000	6979400
23	35212	30000	6979200
23	41044	35000	6635580
23	41044	35000	6635580
23	41044	35000	6634000
23	47023	40000	6289000
23	47023	40000	6288850
23	47073	40000	6288850
23	47073	40000	6288850
23	47073	40000	6288700
23	53199	45000	6269434
23	53199	45000	6269434
23	53199	45000	6269050
27	0	0	3
27	5954	5000	3
27	5954	5000	3
27	5954	5000	3
27	11795	10000	3
27	11795	10000	3
27	11845	10000	3
27	11845	10000	3
27	11845	10000	3
27	17722	15000	3
27	17722	15000	3
27	17722	15000	3
27	23434	20000	3
27	23434	20000	3
27	23484	20000	3
27	23484	20000	3
27	23484	20000	3
27	29421	25000	3
27	29421	25000	3
27	29421	25000	3
27	35163	30000	3
27	35163	30000	3
27	35213	30000	3
27	35213	30000	3
27	35213	30000	3
27	41045	35000	3
27	41045	35000	3
27	41045	35000	3
27	47024	40000	3
27	47024	40000	3
27	47074	40000	3
27	47074	40000	3
27	47074	40000	3
27	53200	45000	3
27	53200	45000	3
27	53200	45000	3
28	0	0	1
28	5954	5000	0.96818333333333
28	5954	5000	0.96818333333333
28	5954	5000	0.96803703703704
28	11795	10000	0.93609259259259
28	11795	10000	0.9360787037037
28	11845	10000	0.9360787037037
28	11845	10000	0.9360787037037
28	11845	10000	0.93606481481481
28	17722	15000	0.93428092592593
28	17722	15000	0.93428092592593
28	17722	15000	0.93424537037037
28	23434	20000	0.93243981481481
28	23434	20000	0.93241666666667
28	23484	20000	0.93241666666667
28	23484	20000	0.93241666666667
28	23484	20000	0.93239351851852
28	29421	25000	0.79048240740741
28	29421	25000	0.79048240740741
28	29421	25000	0.78931481481481
28	35163	30000	0.64625925925926
28	35163	30000	0.64624074074074
28	35213	30000	0.64624074074074
28	35213	30000	0.64624074074074
28	35213	30000	0.64622222222222
28	41045	35000	0.61440555555556
28	41045	35000	0.61440555555556
28	41045	35000	0.61425925925926
28	47024	40000	0.58231481481481
28	47024	40000	0.58230092592593
28	47074	40000	0.58230092592593
28	47074	40000	0.58230092592593
28	47074	40000	0.58228703703704
28	53200	45000	0.58050314814815
28	53200	45000	0.58050314814815
28	53200	45000	0.58046759259259
29	0	0	10800000
29	5954	5000	10456380
29	5954	5000	10456380
29	5954	5000	10454800
29	11795	10000	10109800
29	11795	10000	10109650
29	11845	10000	10109650
29	11845	10000	10109650
29	11845	10000	10109500
29	17722	15000	10090234
29	17722	15000	10090234
29	17722	15000	10089850
29	23434	20000	10070350
29	23434	20000	10070100
29	23484	20000	10070100
29	23484	20000	10070100
29	23484	20000	10069850
29	29421	25000	8537210
29	29421	25000	8537210
29	29421	25000	8524600
29	35163	30000	6979600
29	35163	30000	6979400
29	35213	30000	6979400
29	35213	30000	6979400
29	35213	30000	6979200
29	41045	35000	6635580
29	41045	35000	6635580
29	41045	35000	6634000
29	47024	40000	6289000
29	47024	40000	6288850
29	47074	40000	6288850
29	47074	40000	6288850
29	47074	40000	6288700
29	53200	45000	6269434
29	53200	45000	6269434
29	53200	45000	6269050
33	0	0	3
33	5955	5000	3
33	5955	5000	3
33	5955	5000	3
33	11796	10000	3
33	11796	10000	3
33	11846	10000	3
33	11846	10000	3
33	11846	10000	3
33	17723	15000	3
33	17723	15000	3
33	17723	15000	3
33	23435	20000	3
33	23435	20000	3
33	23485	20000	3
33	23485	20000	3
33	23485	20000	3
33	29422	25000	3
33	29422	25000	3
33	29422	25000	3
33	35164	30000	3
33	35164	30000	3
33	35214	30000	3
33	35214	30000	3
33	35214	30000	3
33	41046	35000	3
33	41046	35000	3
33	41046	35000	3
33	47025	40000	3
33	47025	40000	3
33	47075	40000	3
33	47075	40000	3
33	47075	40000	3
33	53201	45000	3
33	53201	45000	3
33	53201	45000	3
34	0	0	1
34	5955	5000	0.96818333333333
34	5955	5000	0.96818333333333
34	5955	5000	0.96803703703704
34	11796	10000	0.93609259259259
34	11796	10000	0.9360787037037
34	11846	10000	0.9360787037037
34	11846	10000	0.9360787037037
34	11846	10000	0.93606481481481
34	17723	15000	0.93428092592593
34	17723	15000	0.93428092592593
34	17723	15000	0.93424537037037
34	23435	20000	0.93243981481481
34	23435	20000	0.93241666666667
34	23485	20000	0.93241666666667
34	23485	20000	0.93241666666667
34	23485	20000	0.93239351851852
34	29422	25000	0.79048240740741
34	29422	25000	0.79048240740741
34	29422	25000	0.78931481481481
34	35164	30000	0.64625925925926
34	35164	30000	0.64624074074074
34	35214	30000	0.64624074074074
34	35214	30000	0.64624074074074
34	35214	30000	0.64622222222222
34	41046	35000	0.61440555555556
34	41046	35000	0.61440555555556
34	41046	35000	0.61425925925926
34	47025	40000	0.58231481481481
34	47025	40000	0.58230092592593
34	47075	40000	0.58230092592593
34	47075	40000	0.58230092592593
34	47075	40000	0.58228703703704
34	53201	45000	0.58050314814815
34	53201	45000	0.58050314814815
34	53201	45000	0.58046759259259
35	0	0	10800000
35	5955	5000	10456380
35	5955	5000	10456380
35	5955	5000	10454800
35	11796	10000	10109800
35	11796	10000	10109650
35	11846	10000	10109650
35	11846	10000	10109650
35	11846	10000	10109500
35	17723	15000	10090234
35	17723	15000	10090234
35	17723	15000	10089850
35	23435	20000	10070350
35	23435	20000	10070100
35	23485	20000	10070100
35	23485	20000	10070100
35	23485	20000	10069850
35	29422	25000	8537210
35	29422	25000	8537210
35	29422	25000	8524600
35	35164	30000	6979600
35	35164	30000	6979400
35	35214	30000	6979400
35	35214	30000	6979400
35	35214	30000	6979200
35	41046	35000	6635580
35	41046	35000	6635580
35	41046	35000	6634000
35	47025	40000	6289000
35	47025	40000	6288850
35	47075	40000	6288850
35	47075	40000	6288850
35	47075	40000	6288700
35	53201	45000	6269434
35	53201	45000	6269434
35	53201	45000	6269050
39	0	0	3
39	5956	5000	3
39	5956	5000	3
39	5956	5000	3
39	11797	10000	3
39	11797	10000	3
39	11847	10000	3
39	11847	10000	3
39	11847	10000	3
39	17724	15000	3
39	17724	15000	3
39	17724	15000	3
39	23436	20000	3
39	23436	20000	3
39	23486	20000	3
39	23486	20000	3
39	23486	20000	3
39	29423	25000	3
39	29423	25000	3
39	29423	25000	3
39	35165	30000	3
39	35165	30000	3
39	35215	30000	3
39	35215	30000	3
39	35215	30000	3
39	41047	35000	3
39	41047	35000	3
39	41047	35000	3
39	47026	40000	3
39	47026	40000	3
39	47076	40000	3
39	47076	40000	3
39	47076	40000	3
39	53202	45000	3
39	53202	45000	3
39	53202	45000	3
40	0	0	1
40	5956	5000	0.96818333333333
40	5956	5000	0.96818333333333
40	5956	5000	0.96803703703704
40	11797	10000	0.93609259259259
40	11797	10000	0.9360787037037
40	11847	10000	0.9360787037037
40	11847	10000	0.9360787037037
40	11847	10000	0.93606481481481
40	17724	15000	0.93428092592593
40	17724	15000	0.93428092592593
40	17724	15000	0.93424537037037
40	23436	20000	0.93243981481481
40	23436	20000	0.93241666666667
40	23486	20000	0.93241666666667
40	23486	20000	0.93241666666667
40	23486	20000	0.93239351851852
40	29423	25000	0.79048240740741
40	29423	25000	0.79048240740741
40	29423	25000	0.78931481481481
40	35165	30000	0.64625925925926
40	35165	30000	0.64624074074074
40	35215	30000	0.64624074074074
40	35215	30000	0.64624074074074
40	35215	30000	0.64622222222222
40	41047	35000	0.61440555555556
40	41047	35000	0.61440555555556
40	41047	35000	0.61425925925926
40	47026	40000	0.58231481481481
40	47026	40000	0.58230092592593
40	47076	40000	0.58230092592593
40	47076	40000	0.58230092592593
40	47076	40000	0.58228703703704
40	53202	45000	0.58050314814815
40	53202	45000	0.58050314814815
40	53202	45000	0.58046759259259
41	0	0	10800000
41	5956	5000	10456380
41	5956	5000	10456380
41	5956	5000	10454800
41	11797	10000	10109800
41	11797	10000	10109650
41	11847	10000	10109650
41	11847	10000	10109650
41	11847	10000	10109500
41	17724	15000	10090234
41	17724	15000	10090234
41	17724	15000	10089850
41	23436	20000	10070350
41	23436	20000	10070100
41	23486	20000	10070100
41	23486	20000	10070100
41	23486	20000	10069850
41	29423	25000	8537210
41	29423	25000	8537210
41	29423	25000	8524600
41	35165	30000	6979600
41	35165	30000	6979400
41	35215	30000	6979400
41	35215	30000	6979400
41	35215	30000	6979200
41	41047	35000	6635580
41	41047	35000	6635580
41	41047	35000	6634000
41	47026	40000	6289000
41	47026	40000	6288850
41	47076	40000	6288850
41	47076	40000	6288850
41	47076	40000	6288700
41	53202	45000	6269434
41	53202	45000	6269434
41	53202	45000	6269050
45	0	0	3
45	5957	5000	3
45	5957	5000	3
45	5957	5000	3
45	11798	10000	3
45	11798	10000	3
45	11848	10000	3
45	11848	10000	3
45	11848	10000	3
45	17725	15000	3
45	17725	15000	3
45	17725	15000	3
45	23437	20000	3
45	23437	20000	3
45	23487	20000	3
45	23487	20000	3
45	23487	20000	3
45	29424	25000	3
45	29424	25000	3
45	29424	25000	3
45	35166	30000	3
45	35166	30000	3
45	35216	30000	3
45	35216	30000	3
45	35216	30000	3
45	41048	35000	3
45	41048	35000	3
45	41048	35000	3
45	47027	40000	3
45	47027	40000	3
45	47077	40000	3
45	47077	40000	3
45	47077	40000	3
45	53203	45000	3
45	53203	45000	3
45	53203	45000	3
46	0	0	1
46	5957	5000	0.96818333333333
46	5957	5000	0.96818333333333
46	5957	5000	0.96803703703704
46	11798	10000	0.93609259259259
46	11798	10000	0.9360787037037
46	11848	10000	0.9360787037037
46	11848	10000	0.9360787037037
46	11848	10000	0.93606481481481
46	17725	15000	0.93428092592593
46	17725	15000	0.93428092592593
46	17725	15000	0.93424537037037
46	23437	20000	0.93243981481481
46	23437	20000	0.93241666666667
46	23487	20000	0.93241666666667
46	23487	20000	0.93241666666667
46	23487	20000	0.93239351851852
46	29424	25000	0.79048240740741
46	29424	25000	0.79048240740741
46	29424	25000	0.78931481481481
46	35166	30000	0.64625925925926
46	35166	30000	0.64624074074074
46	35216	30000	0.64624074074074
46	35216	30000	0.64624074074074
46	35216	30000	0.64622222222222
46	41048	35000	0.61440555555556
46	41048	35000	0.61440555555556
46	41048	35000	0.61425925925926
46	47027	40000	0.58231481481481
46	47027	40000	0.58230092592593
46	47077	40000	0.58230092592593
46	47077	40000	0.58230092592593
46	47077	40000	0.58228703703704
46	53203	45000	0.58050314814815
46	53203	45000	0.58050314814815
46	53203	45000	0.58046759259259
47	0	0	10800000
47	5957	5000	10456380
47	5957	5000	10456380
47	5957	5000	10454800
47	11798	10000	10109800
47	11798	10000	10109650
47	11848	10000	10109650
47	11848	10000	10109650
47	11848	10000	10109500
47	17725	15000	10090234
47	17725	15000	10090234
47	17725	15000	10089850
47	23437	20000	10070350
47	23437	20000	10070100
47	23487	20000	10070100
47	23487	20000	10070100
47	23487	20000	10069850
47	29424	25000	8537210
47	29424	25000	8537210
47	29424	25000	8524600
47	35166	30000	6979600
47	35166	30000	6979400
47	35216	30000	6979400
47	35216	30000	6979400
47	35216	30000	6979200
47	41048	35000	6635580
47	41048	35000	6635580
47	41048	35000	6634000
47	47027	40000	6289000
47	47027	40000	6288850
47	47077	40000	6288850
47	47077	40000	6288850
47	47077	40000	6288700
47	53203	45000	6269434
47	53203	45000	6269434
47	53203	45000	6269050
51	0	0	3
51	5958	5000	3
51	5958	5000	3
51	5958	5000	3
51	11799	10000	3
51	11799	10000	3
51	11849	10000	3
51	11849	10000	3
51	11849	10000	3
51	17726	15000	3
51	17726	15000	3
51	17726	15000	3
51	23438	20000	3
51	23438	20000	3
51	23488	20000	3
51	23488	20000	3
51	23488	20000	3
51	29425	25000	3
51	29425	25000	3
51	29425	25000	3
51	35167	30000	3
51	35167	30000	3
51	35217	30000	3
51	35217	30000	3
51	35217	30000	3
51	41049	35000	3
51	41049	35000	3
51	41049	35000	3
51	47028	40000	3
51	47028	40000	3
51	47078	40000	3
51	47078	40000	3
51	47078	40000	3
51	53204	45000	3
51	53204	45000	3
51	53204	45000	3
52	0	0	1
52	5958	5000	0.96818333333333
52	5958	5000	0.96818333333333
52	5958	5000	0.96803703703704
52	11799	10000	0.93609259259259
52	11799	10000	0.9360787037037
52	11849	10000	0.9360787037037
52	11849	10000	0.9360787037037
52	11849	10000	0.93606481481481
52	17726	15000	0.93428092592593
52	17726	15000	0.93428092592593
52	17726	15000	0.93424537037037
52	23438	20000	0.93243981481481
52	23438	20000	0.93241666666667
52	23488	20000	0.93241666666667
52	23488	20000	0.93241666666667
52	23488	20000	0.93239351851852
52	29425	25000	0.79048240740741
52	29425	25000	0.79048240740741
52	29425	25000	0.78931481481481
52	35167	30000	0.64625925925926
52	35167	30000	0.64624074074074
52	35217	30000	0.64624074074074
52	35217	30000	0.64624074074074
52	35217	30000	0.64622222222222
52	41049	35000	0.61440555555556
52	41049	35000	0.61440555555556
52	41049	35000	0.61425925925926
52	47028	40000	0.58231481481481
52	47028	40000	0.58230092592593
52	47078	40000	0.58230092592593
52	47078	40000	0.58230092592593
52	47078	40000	0.58228703703704
52	53204	45000	0.58050314814815
52	53204	45000	0.58050314814815
52	53204	45000	0.58046759259259
53	0	0	10800000
53	5958	5000	10456380
53	5958	5000	10456380
53	5958	5000	10454800
53	11799	10000	10109800
53	11799	10000	10109650
53	11849	10000	10109650
53	11849	10000	10109650
53	11849	10000	10109500
53	17726	15000	10090234
53	17726	15000	10090234
53	17726	15000	10089850
53	23438	20000	10070350
53	23438	20000	10070100
53	23488	20000	10070100
53	23488	20000	10070100
53	23488	20000	10069850
53	29425	25000	8537210
53	29425	25000	8537210
53	29425	25000	8524600
53	35167	30000	6979600
53	35167	30000	6979400
53	35217	30000	6979400
53	35217	30000	6979400
53	35217	30000	6979200
53	41049	35000	6635580
53	41049	35000	6635580
53	41049	35000	6634000
53	47028	40000	6289000
53	47028	40000	6288850
53	47078	40000	6288850
53	47078	40000	6288850
53	47078	40000	6288700
53	53204	45000	6269434
53	53204	45000	6269434
53	53204	45000	6269050
57	0	0	3
57	5959	5000	3
57	5959	5000	3
57	5959	5000	3
57	11800	10000	3
57	11800	10000	3
57	11850	10000	3
57	11850	10000	3
57	11850	10000	3
57	17727	15000	3
57	17727	15000	3
57	17727	15000	3
57	23439	20000	3
57	23439	20000	3
57	23489	20000	3
57	23489	20000	3
57	23489	20000	3
57	29426	25000	3
57	29426	25000	3
57	29426	25000	3
57	35168	30000	3
57	35168	30000	3
57	35218	30000	3
57	35218	30000	3
57	35218	30000	3
57	41050	35000	3
57	41050	35000	3
57	41050	35000	3
57	47029	40000	3
57	47029	40000	3
57	47079	40000	3
57	47079	40000	3
57	47079	40000	3
57	53205	45000	3
57	53205	45000	3
57	53205	45000	3
58	0	0	1
58	5959	5000	0.96818333333333
58	5959	5000	0.96818333333333
58	5959	5000	0.96803703703704
58	11800	10000	0.93609259259259
58	11800	10000	0.9360787037037
58	11850	10000	0.9360787037037
58	11850	10000	0.9360787037037