version 2
run General-0-20150511-13:58:24-17122
attr configname General
attr datetime 20150511-13:58:24
attr experiment General
attr inifile omnetpp.ini
attr iterationvars ""
attr iterationvars2 $repetition=0
attr measurement ""
attr network BasicExample
attr processid 17122
attr repetition 0
attr replication #0
attr resultdir results
attr runnumber 0
attr seedset 0

vector 3  BasicExample.TempNode[0].Processor  Voltage  ETV
vector 4  BasicExample.TempNode[0].Processor  residualRelative  ETV
vector 5  BasicExample.TempNode[0].Processor  residualAbs  ETV
vector 9  BasicExample.TempNode[1].Processor  Voltage  ETV
vector 10  BasicExample.TempNode[1].Processor  residualRelative  ETV
vector 11  BasicExample.TempNode[1].Processor  residualAbs  ETV
vector 15  BasicExample.TempNode[2].Processor  Voltage  ETV
vector 16  BasicExample.TempNode[2].Processor  residualRelative  ETV
vector 17  BasicExample.TempNode[2].Processor  residualAbs  ETV
vector 21  BasicExample.TempNode[3].Processor  Voltage  ETV
vector 22  BasicExample.TempNode[3].Processor  residualRelative  ETV
vector 23  BasicExample.TempNode[3].Processor  residualAbs  ETV
vector 27  BasicExample.TempNode[4].Processor  Voltage  ETV
vector 28  BasicExample.TempNode[4].Processor  residualRelative  ETV
vector 29  BasicExample.TempNode[4].Processor  residualAbs  ETV
vector 33  BasicExample.TempNode[5].Processor  Voltage  ETV
vector 34  BasicExample.TempNode[5].Processor  residualRelative  ETV
vector 35  BasicExample.TempNode[5].Processor  residualAbs  ETV
vector 39  BasicExample.TempNode[6].Processor  Voltage  ETV
vector 40  BasicExample.TempNode[6].Processor  residualRelative  ETV
vector 41  BasicExample.TempNode[6].Processor  residualAbs  ETV
vector 45  BasicExample.TempNode[7].Processor  Voltage  ETV
vector 46  BasicExample.TempNode[7].Processor  residualRelative  ETV
vector 47  BasicExample.TempNode[7].Processor  residualAbs  ETV
vector 51  BasicExample.TempNode[8].Processor  Voltage  ETV
vector 52  BasicExample.TempNode[8].Processor  residualRelative  ETV
vector 53  BasicExample.TempNode[8].Processor  residualAbs  ETV
vector 57  BasicExample.TempNode[9].Processor  Voltage  ETV
vector 58  BasicExample.TempNode[9].Processor  residualRelative  ETV
vector 59  BasicExample.TempNode[9].Processor  residualAbs  ETV
vector 63  BasicExample.TempNode[10].Processor  Voltage  ETV
vector 64  BasicExample.TempNode[10].Processor  residualRelative  ETV
vector 65  BasicExample.TempNode[10].Processor  residualAbs  ETV
vector 69  BasicExample.TempNode[11].Processor  Voltage  ETV
vector 70  BasicExample.TempNode[11].Processor  residualRelative  ETV
vector 71  BasicExample.TempNode[11].Processor  residualAbs  ETV
vector 75  BasicExample.TempNode[12].Processor  Voltage  ETV
vector 76  BasicExample.TempNode[12].Processor  residualRelative  ETV
vector 77  BasicExample.TempNode[12].Processor  residualAbs  ETV
vector 81  BasicExample.TempNode[13].Processor  Voltage  ETV
vector 82  BasicExample.TempNode[13].Processor  residualRelative  ETV
vector 83  BasicExample.TempNode[13].Processor  residualAbs  ETV
vector 87  BasicExample.TempNode[14].Processor  Voltage  ETV
vector 88  BasicExample.TempNode[14].Processor  residualRelative  ETV
vector 89  BasicExample.TempNode[14].Processor  residualAbs  ETV
vector 93  BasicExample.TempNode[15].Processor  Voltage  ETV
vector 94  BasicExample.TempNode[15].Processor  residualRelative  ETV
vector 95  BasicExample.TempNode[15].Processor  residualAbs  ETV
vector 99  BasicExample.TempNode[16].Processor  Voltage  ETV
vector 100  BasicExample.TempNode[16].Processor  residualRelative  ETV
vector 101  BasicExample.TempNode[16].Processor  residualAbs  ETV
vector 105  BasicExample.TempNode[17].Processor  Voltage  ETV
vector 106  BasicExample.TempNode[17].Processor  residualRelative  ETV
vector 107  BasicExample.TempNode[17].Processor  residualAbs  ETV
vector 111  BasicExample.TempNode[18].Processor  Voltage  ETV
vector 112  BasicExample.TempNode[18].Processor  residualRelative  ETV
vector 113  BasicExample.TempNode[18].Processor  residualAbs  ETV
vector 117  BasicExample.TempNode[19].Processor  Voltage  ETV
vector 118  BasicExample.TempNode[19].Processor  residualRelative  ETV
vector 119  BasicExample.TempNode[19].Processor  residualAbs  ETV
vector 123  BasicExample.TempNode[20].Processor  Voltage  ETV
vector 124  BasicExample.TempNode[20].Processor  residualRelative  ETV
vector 125  BasicExample.TempNode[20].Processor  residualAbs  ETV
vector 129  BasicExample.TempNode[21].Processor  Voltage  ETV
vector 130  BasicExample.TempNode[21].Processor  residualRelative  ETV
vector 131  BasicExample.TempNode[21].Processor  residualAbs  ETV
vector 135  BasicExample.TempNode[22].Processor  Voltage  ETV
vector 136  BasicExample.TempNode[22].Processor  residualRelative  ETV
vector 137  BasicExample.TempNode[22].Processor  residualAbs  ETV
vector 141  BasicExample.TempNode[23].Processor  Voltage  ETV
vector 142  BasicExample.TempNode[23].Processor  residualRelative  ETV
vector 143  BasicExample.TempNode[23].Processor  residualAbs  ETV
vector 147  BasicExample.TempNode[24].Processor  Voltage  ETV
vector 148  BasicExample.TempNode[24].Processor  residualRelative  ETV
vector 149  BasicExample.TempNode[24].Processor  residualAbs  ETV
vector 153  BasicExample.TempNode[25].Processor  Voltage  ETV
vector 154  BasicExample.TempNode[25].Processor  residualRelative  ETV
vector 155  BasicExample.TempNode[25].Processor  residualAbs  ETV
vector 159  BasicExample.TempNode[26].Processor  Voltage  ETV
vector 160  BasicExample.TempNode[26].Processor  residualRelative  ETV
vector 161  BasicExample.TempNode[26].Processor  residualAbs  ETV
vector 165  BasicExample.TempNode[27].Processor  Voltage  ETV
vector 166  BasicExample.TempNode[27].Processor  residualRelative  ETV
vector 167  BasicExample.TempNode[27].Processor  residualAbs  ETV
vector 171  BasicExample.TempNode[28].Processor  Voltage  ETV
vector 172  BasicExample.TempNode[28].Processor  residualRelative  ETV
vector 173  BasicExample.TempNode[28].Processor  residualAbs  ETV
vector 177  BasicExample.TempNode[29].Processor  Voltage  ETV
vector 178  BasicExample.TempNode[29].Processor  residualRelative  ETV
vector 179  BasicExample.TempNode[29].Processor  residualAbs  ETV
3	0	0	3
3	181	0	3
3	181	0	3
3	182	0	3
3	182	0	3
3	5950	5000	3
3	5950	5000	3
3	5950	5000	3
3	11791	10000	3
3	11791	10000	3
3	11792	10000	3
3	11792	10000	3
3	11851	10000	3
3	11851	10000	3
3	11851	10000	3
3	12121	10000	3
3	12121	10000	3
3	12122	10000	3
3	12122	10000	3
3	17728	15000	3
3	17728	15000	3
3	17728	15000	3
3	23440	20000	3
3	23440	20000	3
3	23441	20000	3
3	23441	20000	3
3	23500	20000	3
3	23500	20000	3
3	23500	20000	3
3	23770	20000	3
3	23770	20000	3
3	23771	20000	3
3	23771	20000	3
3	29437	25000	3
3	29437	25000	3
3	29437	25000	3
3	35179	30000	3
3	35179	30000	3
3	35180	30000	3
3	35180	30000	3
3	35239	30000	3
3	35239	30000	3
3	35239	30000	3
3	35509	30000	3
3	35509	30000	3
3	35510	30000	3
3	35510	30000	3
3	41071	35000	3
3	41071	35000	3
3	41071	35000	3
3	47050	40000	3
3	47050	40000	3
3	47051	40000	3
3	47051	40000	3
3	47110	40000	3
3	47110	40000	3
3	47110	40000	3
3	47380	40000	3
3	47380	40000	3
3	47381	40000	3
3	47381	40000	3
3	53236	45000	3
3	53236	45000	3
3	53236	45000	3
3	58792	50000	3
3	58792	50000	3
3	58793	50000	3
3	58793	50000	3
3	58852	50000	3
3	58852	50000	3
3	58852	50000	3
3	59122	50000	3
3	59122	50000	3
3	59123	50000	3
3	59123	50000	3
3	64789	55000	3
3	64789	55000	3
3	64789	55000	3
3	70615	60000	3
3	70615	60000	3
3	70616	60000	3
3	70616	60000	3
3	70675	60000	3
3	70675	60000	3
3	70675	60000	3
4	0	0	1
4	181	0	0.99990740740741
4	181	0	0.99988888888889
4	182	0	0.99988888888889
4	182	0	0.99987037037037
4	5950	5000	0.93483518518519
4	5950	5000	0.93483518518519
4	5950	5000	0.93455555555556
4	11791	10000	0.8698
4	11791	10000	0.86925925925926
4	11792	10000	0.86925925925926
4	11792	10000	0.86924537037037
4	11851	10000	0.86924537037037
4	11851	10000	0.86924537037037
4	11851	10000	0.86923148148148
4	12121	10000	0.86912037037037
4	12121	10000	0.86910648148148
4	12122	10000	0.86910648148148
4	12122	10000	0.86909259259259
4	17728	15000	0.86399685185185
4	17728	15000	0.86399685185185
4	17728	15000	0.8639212962963
4	23440	20000	0.85880296296296
4	23440	20000	0.85876851851852
4	23441	20000	0.85876851851852
4	23441	20000	0.85874537037037
4	23500	20000	0.85874537037037
4	23500	20000	0.85874537037037
4	23500	20000	0.85872222222222
4	23770	20000	0.85861111111111
4	23770	20000	0.85858796296296
4	23771	20000	0.85858796296296
4	23771	20000	0.85856481481481
4	29437	25000	0.68356851851852
4	29437	25000	0.68356851851852
4	29437	25000	0.68213425925926
4	35179	30000	0.50786203703704
4	35179	30000	0.50572222222222
4	35180	30000	0.50572222222222
4	35180	30000	0.5057037037037
4	35239	30000	0.5057037037037
4	35239	30000	0.5057037037037
4	35239	30000	0.50568518518519
4	35509	30000	0.50557407407407
4	35509	30000	0.50555555555556
4	35510	30000	0.50555555555556
4	35510	30000	0.50553703703704
4	41071	35000	0.44050185185185
4	41071	35000	0.44050185185185
4	41071	35000	0.44022222222222
4	47050	40000	0.37546666666667
4	47050	40000	0.37492592592593
4	47051	40000	0.37492592592593
4	47051	40000	0.37491203703704
4	47110	40000	0.37491203703704
4	47110	40000	0.37491203703704
4	47110	40000	0.37489814814815
4	47380	40000	0.37478703703704
4	47380	40000	0.37477314814815
4	47381	40000	0.37477314814815
4	47381	40000	0.37475925925926
4	53236	45000	0.36966351851852
4	53236	45000	0.36966351851852
4	53236	45000	0.36958796296296
4	58792	50000	0.36446962962963
4	58792	50000	0.36443518518519
4	58793	50000	0.36443518518519
4	58793	50000	0.36441203703704
4	58852	50000	0.36441203703704
4	58852	50000	0.36441203703704
4	58852	50000	0.36438888888889
4	59122	50000	0.36427777777778
4	59122	50000	0.36425462962963
4	59123	50000	0.36425462962963
4	59123	50000	0.36423148148148
4	64789	55000	0.18923518518519
4	64789	55000	0.18923518518519
4	64789	55000	0.18780092592593
4	70615	60000	0.013528703703704
4	70615	60000	0.011388888888889
4	70616	60000	0.011388888888889
4	70616	60000	0.01137037037037
4	70675	60000	0.01137037037037
4	70675	60000	0.01137037037037
4	70675	60000	0.011351851851852
5	0	0	10800000
5	181	0	10799000
5	181	0	10798800
5	182	0	10798800
5	182	0	10798600
5	5950	5000	10096220
5	5950	5000	10096220
5	5950	5000	10093200
5	11791	10000	9393840
5	11791	10000	9388000
5	11792	10000	9388000
5	11792	10000	9387850
5	11851	10000	9387850
5	11851	10000	9387850
5	11851	10000	9387700
5	12121	10000	9386500
5	12121	10000	9386350
5	12122	10000	9386350
5	12122	10000	9386200
5	17728	15000	9331166
5	17728	15000	9331166
5	17728	15000	9330350
5	23440	20000	9275072
5	23440	20000	9274700
5	23441	20000	9274700
5	23441	20000	9274450
5	23500	20000	9274450
5	23500	20000	9274450
5	23500	20000	9274200
5	23770	20000	9273000
5	23770	20000	9272750
5	23771	20000	9272750
5	23771	20000	9272500
5	29437	25000	7382540
5	29437	25000	7382540
5	29437	25000	7367050
5	35179	30000	5484910
5	35179	30000	5461800
5	35180	30000	5461800
5	35180	30000	5461600
5	35239	30000	5461600
5	35239	30000	5461600
5	35239	30000	5461400
5	35509	30000	5460200
5	35509	30000	5460000
5	35510	30000	5460000
5	35510	30000	5459800
5	41071	35000	4757420
5	41071	35000	4757420
5	41071	35000	4754400
5	47050	40000	4055040
5	47050	40000	4049200
5	47051	40000	4049200
5	47051	40000	4049050
5	47110	40000	4049050
5	47110	40000	4049050
5	47110	40000	4048900
5	47380	40000	4047700
5	47380	40000	4047550
5	47381	40000	4047550
5	47381	40000	4047400
5	53236	45000	3992366
5	53236	45000	3992366
5	53236	45000	3991550
5	58792	50000	3936272
5	58792	50000	3935900
5	58793	50000	3935900
5	58793	50000	3935650
5	58852	50000	3935650
5	58852	50000	3935650
5	58852	50000	3935400
5	59122	50000	3934200
5	59122	50000	3933950
5	59123	50000	3933950
5	59123	50000	3933700
5	64789	55000	2043740
5	64789	55000	2043740
5	64789	55000	2028250
5	70615	60000	146110
5	70615	60000	123000
5	70616	60000	123000
5	70616	60000	122800
5	70675	60000	122800
5	70675	60000	122800
5	70675	60000	122600
9	0	0	3
9	183	0	3
9	183	0	3
9	184	0	3
9	184	0	3
9	5951	5000	3
9	5951	5000	3
9	5951	5000	3
9	11793	10000	3
9	11793	10000	3
9	11794	10000	3
9	11794	10000	3
9	11852	10000	3
9	11852	10000	3
9	11852	10000	3
9	12123	10000	3
9	12123	10000	3
9	12124	10000	3
9	12124	10000	3
9	17729	15000	3
9	17729	15000	3
9	17729	15000	3
9	23442	20000	3
9	23442	20000	3
9	23443	20000	3
9	23443	20000	3
9	23501	20000	3
9	23501	20000	3
9	23501	20000	3
9	23772	20000	3
9	23772	20000	3
9	23773	20000	3
9	23773	20000	3
9	29438	25000	3
9	29438	25000	3
9	29438	25000	3
9	35181	30000	3
9	35181	30000	3
9	35182	30000	3
9	35182	30000	3
9	35240	30000	3
9	35240	30000	3
9	35240	30000	3
9	35511	30000	3
9	35511	30000	3
9	35512	30000	3
9	35512	30000	3
9	41072	35000	3
9	41072	35000	3
9	41072	35000	3
9	47052	40000	3
9	47052	40000	3
9	47053	40000	3
9	47053	40000	3
9	47111	40000	3
9	47111	40000	3
9	47111	40000	3
9	47382	40000	3
9	47382	40000	3
9	47383	40000	3
9	47383	40000	3
9	53237	45000	3
9	53237	45000	3
9	53237	45000	3
9	58794	50000	3
9	58794	50000	3
9	58795	50000	3
9	58795	50000	3
9	58853	50000	3
9	58853	50000	3
9	58853	50000	3
9	59124	50000	3
9	59124	50000	3
9	59125	50000	3
9	59125	50000	3
9	64790	55000	3
9	64790	55000	3
9	64790	55000	3
9	70617	60000	3
9	70617	60000	3
9	70618	60000	3
9	70618	60000	3
9	70676	60000	3
9	70676	60000	3
9	70676	60000	3
10	0	0	1
10	183	0	0.99990740740741
10	183	0	0.99988888888889
10	184	0	0.99988888888889
10	184	0	0.99987037037037
10	5951	5000	0.93483518518519
10	5951	5000	0.93483518518519
10	5951	5000	0.93455555555556
10	11793	10000	0.8698
10	11793	10000	0.86925925925926
10	11794	10000	0.86925925925926
10	11794	10000	0.86924537037037
10	11852	10000	0.86924537037037
10	11852	10000	0.86924537037037
10	11852	10000	0.86923148148148
10	12123	10000	0.86912037037037
10	12123	10000	0.86910648148148
10	12124	10000	0.86910648148148
10	12124	10000	0.86909259259259
10	17729	15000	0.86399685185185
10	17729	15000	0.86399685185185
10	17729	15000	0.8639212962963
10	23442	20000	0.85880296296296
10	23442	20000	0.85876851851852
10	23443	20000	0.85876851851852
10	23443	20000	0.85874537037037
10	23501	20000	0.85874537037037
10	23501	20000	0.85874537037037
10	23501	20000	0.85872222222222
10	23772	20000	0.85861111111111
10	23772	20000	0.85858796296296
10	23773	20000	0.85858796296296
10	23773	20000	0.85856481481481
10	29438	25000	0.68356851851852
10	29438	25000	0.68356851851852
10	29438	25000	0.68213425925926
10	35181	30000	0.50786203703704
10	35181	30000	0.50572222222222
10	35182	30000	0.50572222222222
10	35182	30000	0.5057037037037
10	35240	30000	0.5057037037037
10	35240	30000	0.5057037037037
10	35240	30000	0.50568518518519
10	35511	30000	0.50557407407407
10	35511	30000	0.50555555555556
10	35512	30000	0.50555555555556
10	35512	30000	0.50553703703704
10	41072	35000	0.44050185185185
10	41072	35000	0.44050185185185
10	41072	35000	0.44022222222222
10	47052	40000	0.37546666666667
10	47052	40000	0.37492592592593
10	47053	40000	0.37492592592593
10	47053	40000	0.37491203703704
10	47111	40000	0.37491203703704
10	47111	40000	0.37491203703704
10	47111	40000	0.37489814814815
10	47382	40000	0.37478703703704
10	47382	40000	0.37477314814815
10	47383	40000	0.37477314814815
10	47383	40000	0.37475925925926
10	53237	45000	0.36966351851852
10	53237	45000	0.36966351851852
10	53237	45000	0.36958796296296
10	58794	50000	0.36446962962963
10	58794	50000	0.36443518518519
10	58795	50000	0.36443518518519
10	58795	50000	0.36441203703704
10	58853	50000	0.36441203703704
10	58853	50000	0.36441203703704
10	58853	50000	0.36438888888889
10	59124	50000	0.36427777777778
10	59124	50000	0.36425462962963
10	59125	50000	0.36425462962963
10	59125	50000	0.36423148148148
10	64790	55000	0.18923518518519
10	64790	55000	0.18923518518519
10	64790	55000	0.18780092592593
10	70617	60000	0.013528703703704
10	70617	60000	0.011388888888889
10	70618	60000	0.011388888888889
10	70618	60000	0.01137037037037
10	70676	60000	0.01137037037037
10	70676	60000	0.01137037037037
10	70676	60000	0.011351851851852
11	0	0	10800000
11	183	0	10799000
11	183	0	10798800
11	184	0	10798800
11	184	0	10798600
11	5951	5000	10096220
11	5951	5000	10096220
11	5951	5000	10093200
11	11793	10000	9393840
11	11793	10000	9388000
11	11794	10000	9388000
11	11794	10000	9387850
11	11852	10000	9387850
11	11852	10000	9387850
11	11852	10000	9387700
11	12123	10000	9386500
11	12123	10000	9386350
11	12124	10000	9386350
11	12124	10000	9386200
11	17729	15000	9331166
11	17729	15000	9331166
11	17729	15000	9330350
11	23442	20000	9275072
11	23442	20000	9274700
11	23443	20000	9274700
11	23443	20000	9274450
11	23501	20000	9274450
11	23501	20000	9274450
11	23501	20000	9274200
11	23772	20000	9273000
11	23772	20000	9272750
11	23773	20000	9272750
11	23773	20000	9272500
11	29438	25000	7382540
11	29438	25000	7382540
11	29438	25000	7367050
11	35181	30000	5484910
11	35181	30000	5461800
11	35182	30000	5461800
11	35182	30000	5461600
11	35240	30000	5461600
11	35240	30000	5461600
11	35240	30000	5461400
11	35511	30000	5460200
11	35511	30000	5460000
11	35512	30000	5460000
11	35512	30000	5459800
11	41072	35000	4757420
11	41072	35000	4757420
11	41072	35000	4754400
11	47052	40000	4055040
11	47052	40000	4049200
11	47053	40000	4049200
11	47053	40000	4049050
11	47111	40000	4049050
11	47111	40000	4049050
11	47111	40000	4048900
11	47382	40000	4047700
11	47382	40000	4047550
11	47383	40000	4047550
11	47383	40000	4047400
11	53237	45000	3992366
11	53237	45000	3992366
11	53237	45000	3991550
11	58794	50000	3936272
11	58794	50000	3935900
11	58795	50000	3935900
11	58795	50000	3935650
11	58853	50000	3935650
11	58853	50000	3935650
11	58853	50000	3935400
11	59124	50000	3934200
11	59124	50000	3933950
11	59125	50000	3933950
11	59125	50000	3933700
11	64790	55000	2043740
11	64790	55000	2043740
11	64790	55000	2028250
11	70617	60000	146110
11	70617	60000	123000
11	70618	60000	123000
11	70618	60000	122800
11	70676	60000	122800
11	70676	60000	122800
11	70676	60000	122600
15	0	0	3
15	185	0	3
15	185	0	3
15	186	0	3
15	186	0	3
15	5952	5000	3
15	5952	5000	3
15	5952	5000	3
15	11795	10000	3
15	11795	10000	3
15	11796	10000	3
15	11796	10000	3
15	11853	10000	3
15	11853	10000	3
15	11853	10000	3
15	12125	10000	3
15	12125	10000	3
15	12126	10000	3
15	12126	10000	3
15	17730	15000	3
15	17730	15000	3
15	17730	15000	3
15	23444	20000	3
15	23444	20000	3
15	23445	20000	3
15	23445	20000	3
15	23502	20000	3
15	23502	20000	3
15	23502	20000	3
15	23774	20000	3
15	23774	20000	3
15	23775	20000	3
15	23775	20000	3
15	29439	25000	3
15	29439	25000	3
15	29439	25000	3
15	35183	30000	3
15	35183	30000	3
15	35184	30000	3
15	35184	30000	3
15	35241	30000	3
15	35241	30000	3
15	35241	30000	3
15	35513	30000	3
15	35513	30000	3
15	35514	30000	3
15	35514	30000	3
15	41073	35000	3
15	41073	35000	3
15	41073	35000	3
15	47054	40000	3
15	47054	40000	3
15	47055	40000	3
15	47055	40000	3
15	47112	40000	3
15	47112	40000	3
15	47112	40000	3
15	47384	40000	3
15	47384	40000	3
15	47385	40000	3
15	47385	40000	3
15	53238	45000	3
15	53238	45000	3
15	53238	45000	3
15	58796	50000	3
15	58796	50000	3
15	58797	50000	3
15	58797	50000	3
15	58854	50000	3
15	58854	50000	3
15	58854	50000	3
15	59126	50000	3
15	59126	50000	3
15	59127	50000	3
15	59127	50000	3
15	64791	55000	3
15	64791	55000	3
15	64791	55000	3
15	70619	60000	3
15	70619	60000	3
15	70620	60000	3
15	70620	60000	3
15	70677	60000	3
15	70677	60000	3
15	70677	60000	3
16	0	0	1
16	185	0	0.99990740740741
16	185	0	0.99988888888889
16	186	0	0.99988888888889
16	186	0	0.99987037037037
16	5952	5000	0.93483518518519
16	5952	5000	0.93483518518519
16	5952	5000	0.93455555555556
16	11795	10000	0.8698
16	11795	10000	0.86925925925926
16	11796	10000	0.86925925925926
16	11796	10000	0.86924537037037
16	11853	10000	0.86924537037037
16	11853	10000	0.86924537037037
16	11853	10000	0.86923148148148
16	12125	10000	0.86912037037037
16	12125	10000	0.86910648148148
16	12126	10000	0.86910648148148
16	12126	10000	0.86909259259259
16	17730	15000	0.86399685185185
16	17730	15000	0.86399685185185
16	17730	15000	0.8639212962963
16	23444	20000	0.85880296296296
16	23444	20000	0.85876851851852
16	23445	20000	0.85876851851852
16	23445	20000	0.85874537037037
16	23502	20000	0.85874537037037
16	23502	20000	0.85874537037037
16	23502	20000	0.85872222222222
16	23774	20000	0.85861111111111
16	23774	20000	0.85858796296296
16	23775	20000	0.85858796296296
16	23775	20000	0.85856481481481
16	29439	25000	0.68356851851852
16	29439	25000	0.68356851851852
16	29439	25000	0.68213425925926
16	35183	30000	0.50786203703704
16	35183	30000	0.50572222222222
16	35184	30000	0.50572222222222
16	35184	30000	0.5057037037037
16	35241	30000	0.5057037037037
16	35241	30000	0.5057037037037
16	35241	30000	0.50568518518519
16	35513	30000	0.50557407407407
16	35513	30000	0.50555555555556
16	35514	30000	0.50555555555556
16	35514	30000	0.50553703703704
16	41073	35000	0.44050185185185
16	41073	35000	0.44050185185185
16	41073	35000	0.44022222222222
16	47054	40000	0.37546666666667
16	47054	40000	0.37492592592593
16	47055	40000	0.37492592592593
16	47055	40000	0.37491203703704
16	47112	40000	0.37491203703704
16	47112	40000	0.37491203703704
16	47112	40000	0.37489814814815
16	47384	40000	0.37478703703704
16	47384	40000	0.37477314814815
16	47385	40000	0.37477314814815
16	47385	40000	0.37475925925926
16	53238	45000	0.36966351851852
16	53238	45000	0.36966351851852
16	53238	45000	0.36958796296296
16	58796	50000	0.36446962962963
16	58796	50000	0.36443518518519
16	58797	50000	0.36443518518519
16	58797	50000	0.36441203703704
16	58854	50000	0.36441203703704
16	58854	50000	0.36441203703704
16	58854	50000	0.36438888888889
16	59126	50000	0.36427777777778
16	59126	50000	0.36425462962963
16	59127	50000	0.36425462962963
16	59127	50000	0.36423148148148
16	64791	55000	0.18923518518519
16	64791	55000	0.18923518518519
16	64791	55000	0.18780092592593
16	70619	60000	0.013528703703704
16	70619	60000	0.011388888888889
16	70620	60000	0.011388888888889
16	70620	60000	0.01137037037037
16	70677	60000	0.01137037037037
16	70677	60000	0.01137037037037
16	70677	60000	0.011351851851852
17	0	0	10800000
17	185	0	10799000
17	185	0	10798800
17	186	0	10798800
17	186	0	10798600
17	5952	5000	10096220
17	5952	5000	10096220
17	5952	5000	10093200
17	11795	10000	9393840
17	11795	10000	9388000
17	11796	10000	9388000
17	11796	10000	9387850
17	11853	10000	9387850
17	11853	10000	9387850
17	11853	10000	9387700
17	12125	10000	9386500
17	12125	10000	9386350
17	12126	10000	9386350
17	12126	10000	9386200
17	17730	15000	9331166
17	17730	15000	9331166
17	17730	15000	9330350
17	23444	20000	9275072
17	23444	20000	9274700
17	23445	20000	9274700
17	23445	20000	9274450
17	23502	20000	9274450
17	23502	20000	9274450
17	23502	20000	9274200
17	23774	20000	9273000
17	23774	20000	9272750
17	23775	20000	9272750
17	23775	20000	9272500
17	29439	25000	7382540
17	29439	25000	7382540
17	29439	25000	7367050
17	35183	30000	5484910
17	35183	30000	5461800
17	35184	30000	5461800
17	35184	30000	5461600
17	35241	30000	5461600
17	35241	30000	5461600
17	35241	30000	5461400
17	35513	30000	5460200
17	35513	30000	5460000
17	35514	30000	5460000
17	35514	30000	5459800
17	41073	35000	4757420
17	41073	35000	4757420
17	41073	35000	4754400
17	47054	40000	4055040
17	47054	40000	4049200
17	47055	40000	4049200
17	47055	40000	4049050
17	47112	40000	4049050
17	47112	40000	4049050
17	47112	40000	4048900
17	47384	40000	4047700
17	47384	40000	4047550
17	47385	40000	4047550
17	47385	40000	4047400
17	53238	45000	3992366
17	53238	45000	3992366
17	53238	45000	3991550
17	58796	50000	3936272
17	58796	50000	3935900
17	58797	50000	3935900
17	58797	50000	3935650
17	58854	50000	3935650
17	58854	50000	3935650
17	58854	50000	3935400
17	59126	50000	3934200
17	59126	50000	3933950
17	59127	50000	3933950
17	59127	50000	3933700
17	64791	55000	2043740
17	64791	55000	2043740
17	64791	55000	2028250
17	70619	60000	146110
17	70619	60000	123000
17	70620	60000	123000
17	70620	60000	122800
17	70677	60000	122800
17	70677	60000	122800
17	70677	60000	122600
21	0	0	3
21	187	0	3
21	187	0	3
21	188	0	3
21	188	0	3
21	5953	5000	3
21	5953	5000	3
21	5953	5000	3
21	11797	10000	3
21	11797	10000	3
21	11798	10000	3
21	11798	10000	3
21	11854	10000	3
21	11854	10000	3
21	11854	10000	3
21	12127	10000	3
21	12127	10000	3
21	12128	10000	3
21	12128	10000	3
21	17731	15000	3
21	17731	15000	3
21	17731	15000	3
21	23446	20000	3
21	23446	20000	3
21	23447	20000	3
21	23447	20000	3
21	23503	20000	3
21	23503	20000	3
21	23503	20000	3
21	23776	20000	3
21	23776	20000	3
21	23777	20000	3
21	23777	20000	3
21	29440	25000	3
21	29440	25000	3
21	29440	25000	3
21	35185	30000	3
21	35185	30000	3
21	35186	30000	3
21	35186	30000	3
21	35242	30000	3
21	35242	30000	3
21	35242	30000	3
21	35515	30000	3
21	35515	30000	3
21	35516	30000	3
21	35516	30000	3
21	41074	35000	3
21	41074	35000	3
21	41074	35000	3
21	47056	40000	3
21	47056	40000	3
21	47057	40000	3
21	47057	40000	3
21	47113	40000	3
21	47113	40000	3
21	47113	40000	3
21	47386	40000	3
21	47386	40000	3
21	47387	40000	3
21	47387	40000	3
21	53239	45000	3
21	53239	45000	3
21	53239	45000	3
21	58798	50000	3
21	58798	50000	3
21	58799	50000	3
21	58799	50000	3
21	58855	50000	3
21	58855	50000	3
21	58855	50000	3
21	59128	50000	3
21	59128	50000	3
21	59129	50000	3
21	59129	50000	3
21	64792	55000	3
21	64792	55000	3
21	64792	55000	3
21	70621	60000	3
21	70621	60000	3
21	70622	60000	3
21	70622	60000	3
21	70678	60000	3
21	70678	60000	3
21	70678	60000	3
22	0	0	1
22	187	0	0.99990740740741
22	187	0	0.99988888888889
22	188	0	0.99988888888889
22	188	0	0.99987037037037
22	5953	5000	0.93483518518519
22	5953	5000	0.93483518518519
22	5953	5000	0.93455555555556
22	11797	10000	0.8698
22	11797	10000	0.86925925925926
22	11798	10000	0.86925925925926
22	11798	10000	0.86924537037037
22	11854	10000	0.86924537037037
22	11854	10000	0.86924537037037
22	11854	10000	0.86923148148148
22	12127	10000	0.86912037037037
22	12127	10000	0.86910648148148
22	12128	10000	0.86910648148148
22	12128	10000	0.86909259259259
22	17731	15000	0.86399685185185
22	17731	15000	0.86399685185185
22	17731	15000	0.8639212962963
22	23446	20000	0.85880296296296
22	23446	20000	0.85876851851852
22	23447	20000	0.85876851851852
22	23447	20000	0.85874537037037
22	23503	20000	0.85874537037037
22	23503	20000	0.85874537037037
22	23503	20000	0.85872222222222
22	23776	20000	0.85861111111111
22	23776	20000	0.85858796296296
22	23777	20000	0.85858796296296
22	23777	20000	0.85856481481481
22	29440	25000	0.68356851851852
22	29440	25000	0.68356851851852
22	29440	25000	0.68213425925926
22	35185	30000	0.50786203703704
22	35185	30000	0.50572222222222
22	35186	30000	0.50572222222222
22	35186	30000	0.5057037037037
22	35242	30000	0.5057037037037
22	35242	30000	0.5057037037037
22	35242	30000	0.50568518518519
22	35515	30000	0.50557407407407
22	35515	30000	0.50555555555556
22	35516	30000	0.50555555555556
22	35516	30000	0.50553703703704
22	41074	35000	0.44050185185185
22	41074	35000	0.44050185185185
22	41074	35000	0.44022222222222
22	47056	40000	0.37546666666667
22	47056	40000	0.37492592592593
22	47057	40000	0.37492592592593
22	47057	40000	0.37491203703704
22	47113	40000	0.37491203703704
22	47113	40000	0.37491203703704
22	47113	40000	0.37489814814815
22	47386	40000	0.37478703703704
22	47386	40000	0.37477314814815
22	47387	40000	0.37477314814815
22	47387	40000	0.37475925925926
22	53239	45000	0.36966351851852
22	53239	45000	0.36966351851852
22	53239	45000	0.36958796296296
22	58798	50000	0.36446962962963
22	58798	50000	0.36443518518519
22	58799	50000	0.36443518518519
22	58799	50000	0.36441203703704
22	58855	50000	0.36441203703704
22	58855	50000	0.36441203703704
22	58855	50000	0.36438888888889
22	59128	50000	0.36427777777778
22	59128	50000	0.36425462962963
22	59129	50000	0.36425462962963
22	59129	50000	0.36423148148148
22	64792	55000	0.18923518518519
22	64792	55000	0.18923518518519
22	64792	55000	0.18780092592593
22	70621	60000	0.013528703703704
22	70621	60000	0.011388888888889
22	70622	60000	0.011388888888889
22	70622	60000	0.01137037037037
22	70678	60000	0.01137037037037
22	70678	60000	0.01137037037037
22	70678	60000	0.011351851851852
23	0	0	10800000
23	187	0	10799000
23	187	0	10798800
23	188	0	10798800
23	188	0	10798600
23	5953	5000	10096220
23	5953	5000	10096220
23	5953	5000	10093200
23	11797	10000	9393840
23	11797	10000	9388000
23	11798	10000	9388000
23	11798	10000	9387850
23	11854	10000	9387850
23	11854	10000	9387850
23	11854	10000	9387700
23	12127	10000	9386500
23	12127	10000	9386350
23	12128	10000	9386350
23	12128	10000	9386200
23	17731	15000	9331166
23	17731	15000	9331166
23	17731	15000	9330350
23	23446	20000	9275072
23	23446	20000	9274700
23	23447	20000	9274700
23	23447	20000	9274450
23	23503	20000	9274450
23	23503	20000	9274450
23	23503	20000	9274200
23	23776	20000	9273000
23	23776	20000	9272750
23	23777	20000	9272750
23	23777	20000	9272500
23	29440	25000	7382540
23	29440	25000	7382540
23	29440	25000	7367050
23	35185	30000	5484910
23	35185	30000	5461800
23	35186	30000	5461800
23	35186	30000	5461600
23	35242	30000	5461600
23	35242	30000	5461600
23	35242	30000	5461400
23	35515	30000	5460200
23	35515	30000	5460000
23	35516	30000	5460000
23	35516	30000	5459800
23	41074	35000	4757420
23	41074	35000	4757420
23	41074	35000	4754400
23	47056	40000	4055040
23	47056	40000	4049200
23	47057	40000	4049200
23	47057	40000	4049050
23	47113	40000	4049050
23	47113	40000	4049050
23	47113	40000	4048900
23	47386	40000	4047700
23	47386	40000	4047550
23	47387	40000	4047550
23	47387	40000	4047400
23	53239	45000	3992366
23	53239	45000	3992366
23	53239	45000	3991550
23	58798	50000	3936272
23	58798	50000	3935900
23	58799	50000	3935900
23	58799	50000	3935650
23	58855	50000	3935650
23	58855	50000	3935650
23	58855	50000	3935400
23	59128	50000	3934200
23	59128	50000	3933950
23	59129	50000	3933950
23	59129	50000	3933700
23	64792	55000	2043740
23	64792	55000	2043740
23	64792	55000	2028250
23	70621	60000	146110
23	70621	60000	123000
23	70622	60000	123000
23	70622	60000	122800
23	70678	60000	122800
23	70678	60000	122800
23	70678	60000	122600
27	0	0	3
27	189	0	3
27	189	0	3
27	190	0	3
27	190	0	3
27	5954	5000	3
27	5954	5000	3
27	5954	5000	3
27	11799	10000	3
27	11799	10000	3
27	11800	10000	3