version 2
run General-0-20150511-11:30:26-4252
attr configname General
attr datetime 20150511-11:30:26
attr experiment General
attr inifile omnetpp.ini
attr iterationvars ""
attr iterationvars2 $repetition=0
attr measurement ""
attr network BasicExample
attr processid 4252
attr repetition 0
attr replication #0
attr resultdir results
attr runnumber 0
attr seedset 0

vector 3  BasicExample.SensorNode[0].Processor  Voltage  ETV
vector 4  BasicExample.SensorNode[0].Processor  residualRelative  ETV
vector 5  BasicExample.SensorNode[0].Processor  residualAbs  ETV
vector 9  BasicExample.SensorNode[1].Processor  Voltage  ETV
vector 10  BasicExample.SensorNode[1].Processor  residualRelative  ETV
vector 11  BasicExample.SensorNode[1].Processor  residualAbs  ETV
vector 15  BasicExample.SensorNode[2].Processor  Voltage  ETV
vector 16  BasicExample.SensorNode[2].Processor  residualRelative  ETV
vector 17  BasicExample.SensorNode[2].Processor  residualAbs  ETV
vector 21  BasicExample.SensorNode[3].Processor  Voltage  ETV
vector 22  BasicExample.SensorNode[3].Processor  residualRelative  ETV
vector 23  BasicExample.SensorNode[3].Processor  residualAbs  ETV
vector 27  BasicExample.TempNode[0].Processor  Voltage  ETV
vector 28  BasicExample.TempNode[0].Processor  residualRelative  ETV
vector 29  BasicExample.TempNode[0].Processor  residualAbs  ETV
vector 33  BasicExample.TempNode[1].Processor  Voltage  ETV
vector 34  BasicExample.TempNode[1].Processor  residualRelative  ETV
vector 35  BasicExample.TempNode[1].Processor  residualAbs  ETV
vector 39  BasicExample.TempNode[2].Processor  Voltage  ETV
vector 40  BasicExample.TempNode[2].Processor  residualRelative  ETV
vector 41  BasicExample.TempNode[2].Processor  residualAbs  ETV
vector 45  BasicExample.TempNode[3].Processor  Voltage  ETV
vector 46  BasicExample.TempNode[3].Processor  residualRelative  ETV
vector 47  BasicExample.TempNode[3].Processor  residualAbs  ETV
vector 51  BasicExample.AllNode[0].Processor  Voltage  ETV
vector 52  BasicExample.AllNode[0].Processor  residualRelative  ETV
vector 53  BasicExample.AllNode[0].Processor  residualAbs  ETV
vector 57  BasicExample.AllNode[1].Processor  Voltage  ETV
vector 58  BasicExample.AllNode[1].Processor  residualRelative  ETV
vector 59  BasicExample.AllNode[1].Processor  residualAbs  ETV
vector 63  BasicExample.AllNode[2].Processor  Voltage  ETV
vector 64  BasicExample.AllNode[2].Processor  residualRelative  ETV
vector 65  BasicExample.AllNode[2].Processor  residualAbs  ETV
vector 69  BasicExample.AllNode[3].Processor  Voltage  ETV
vector 70  BasicExample.AllNode[3].Processor  residualRelative  ETV
vector 71  BasicExample.AllNode[3].Processor  residualAbs  ETV
3	0	0	3
3	1085	2500	3
3	1085	2500	3
3	2105	5000	3
3	2105	5000	3
3	2105	5000	3
3	4117	10000	3
3	4117	10000	3
3	4117	10000	3
3	5257	12500	3
3	5257	12500	3
3	5461	13000	3
3	5461	13000	3
3	6265	15000	3
3	6265	15000	3
3	6265	15000	3
3	6493	15500	3
3	6493	15500	3
3	8313	20000	3
3	8313	20000	3
3	8313	20000	3
3	10437	25000	3
3	10437	25000	3
3	10437	25000	3
3	10641	25500	3
3	10641	25500	3
3	10869	26000	3
3	10869	26000	3
3	11865	28500	3
3	11865	28500	3
3	12485	30000	3
3	12485	30000	3
3	12485	30000	3
3	14633	35000	3
3	14633	35000	3
3	14633	35000	3
3	16037	38500	3
3	16037	38500	3
3	16241	39000	3
3	16241	39000	3
3	16669	40000	3
3	16669	40000	3
3	16669	40000	3
3	17401	41500	3
3	17401	41500	3
3	18805	45000	3
3	18805	45000	3
3	18805	45000	3
3	20841	50000	3
3	20841	50000	3
3	20841	50000	3
3	21573	51500	3
3	21573	51500	3
3	21777	52000	3
3	21777	52000	3
3	22797	54500	3
3	22797	54500	3
3	23001	55000	3
3	23001	55000	3
3	23001	55000	3
3	25013	60000	3
3	25013	60000	3
3	25013	60000	3
3	26945	64500	3
3	26945	64500	3
3	27173	65000	3
3	27173	65000	3
3	27173	65000	3
3	27185	65000	3
3	27185	65000	3
3	28181	67500	3
3	28181	67500	3
3	29209	70000	3
3	29209	70000	3
3	29209	70000	3
3	31333	75000	3
3	31333	75000	3
3	31333	75000	3
3	32353	77500	3
3	32353	77500	3
3	32557	78000	3
3	32557	78000	3
3	33393	80000	3
3	33393	80000	3
3	33393	80000	3
3	33717	80500	3
3	33717	80500	3
3	35529	85000	3
3	35529	85000	3
3	35529	85000	3
3	37541	90000	3
3	37541	90000	3
3	37541	90000	3
3	37889	90500	3
3	37889	90500	3
3	38093	91000	3
3	38093	91000	3
3	39113	93500	3
3	39113	93500	3
3	39725	95000	3
3	39725	95000	3
3	39725	95000	3
3	41737	100000	3
3	41737	100000	3
3	41737	100000	3
3	43261	103500	3
3	43261	103500	3
3	43489	104000	3
3	43489	104000	3
3	43885	105000	3
3	43885	105000	3
3	43885	105000	3
3	44497	106500	3
3	44497	106500	3
3	45933	110000	3
3	45933	110000	3
3	45933	110000	3
3	48057	115000	3
3	48057	115000	3
3	48057	115000	3
3	48669	116500	3
3	48669	116500	3
3	48873	117000	3
3	48873	117000	3
3	49893	119500	3
3	49893	119500	3
3	50105	120000	3
3	50105	120000	3
3	50105	120000	3
3	52253	125000	3
3	52253	125000	3
3	52253	125000	3
3	54065	129500	3
3	54065	129500	3
3	54277	130000	3
3	54277	130000	3
3	54277	130000	3
3	54289	130000	3
3	54289	130000	3
3	55429	132500	3
3	55429	132500	3
3	56425	135000	3
3	56425	135000	3
3	56425	135000	3
3	58461	140000	3
3	58461	140000	3
3	58461	140000	3
3	59577	142500	3
3	59577	142500	3
3	59805	143000	3
3	59805	143000	3
3	60597	145000	3
3	60597	145000	3
3	60597	145000	3
3	60765	145500	3
3	60765	145500	3
3	62277	150000	3
3	62277	150000	3
3	62277	150000	3
3	63989	155000	3
3	63989	155000	3
3	63989	155000	3
3	64157	155500	3
3	64157	155500	3
3	64325	156000	3
3	64325	156000	3
3	65173	158500	3
3	65173	158500	3
3	65685	160000	3
3	65685	160000	3
3	65685	160000	3
3	67377	165000	3
3	67377	165000	3
3	67377	165000	3
3	68565	168500	3
3	68565	168500	3
3	68733	169000	3
3	68733	169000	3
3	69085	170000	3
3	69085	170000	3
3	69085	170000	3
3	69617	171500	3
3	69617	171500	3
3	70785	175000	3
3	70785	175000	3
3	70785	175000	3
3	72457	180000	3
3	72457	180000	3
3	72457	180000	3
3	72989	181500	3
3	72989	181500	3
3	73177	182000	3
3	73177	182000	3
3	74005	184500	3
3	74005	184500	3
3	74193	185000	3
3	74193	185000	3
3	74193	185000	3
3	75865	190000	3
3	75865	190000	3
3	75865	190000	3
3	77397	194500	3
3	77397	194500	3
3	77565	195000	3
3	77565	195000	3
3	77565	195000	3
3	77573	195000	3
3	77573	195000	3
3	78421	197500	3
3	78421	197500	3
3	79273	200000	3
3	79273	200000	3
3	79273	200000	3
3	80965	205000	3
3	80965	205000	3
3	80965	205000	3
3	81813	207500	3
3	81813	207500	3
3	81981	208000	3
3	81981	208000	3
3	82653	210000	3
3	82653	210000	3
3	82653	210000	3
3	82865	210500	3
3	82865	210500	3
3	84373	215000	3
3	84373	215000	3
3	84373	215000	3
3	86045	220000	3
3	86045	220000	3
3	86045	220000	3
3	86237	220500	3
3	86237	220500	3
3	86425	221000	3
3	86425	221000	3
3	87253	223500	3
3	87253	223500	3
3	87761	225000	3
3	87761	225000	3
3	87761	225000	3
3	89453	230000	3
3	89453	230000	3
3	89453	230000	3
3	90645	233500	3
3	90645	233500	3
3	90813	234000	3
3	90813	234000	3
3	91161	235000	3
3	91161	235000	3
3	91161	235000	3
3	91669	236500	3
3	91669	236500	3
3	92841	240000	3
3	92841	240000	3
3	92841	240000	3
3	94553	245000	3
3	94553	245000	3
3	94553	245000	3
3	95061	246500	3
3	95061	246500	3
3	95229	247000	3
3	95229	247000	3
3	96077	249500	3
3	96077	249500	3
3	96249	250000	3
3	96249	250000	3
3	96249	250000	3
3	97941	255000	3
3	97941	255000	3
3	97941	255000	3
4	0	0	1
4	1085	2500	0.98428333333333
4	1085	2500	0.98400925925926
4	2105	5000	0.9831137037037
4	2105	5000	0.98309259259259
4	2105	5000	0.98309259259259
4	4117	10000	0.98130148148148
4	4117	10000	0.98127314814815
4	4117	10000	0.98127314814815
4	5257	12500	0.98037759259259
4	5257	12500	0.98035648148148
4	5461	13000	0.96719537037037
4	5461	13000	0.96602777777778
4	6265	15000	0.95363333333333
4	6265	15000	0.95323148148148
4	6265	15000	0.95323148148148
4	6493	15500	0.95016481481481
4	6493	15500	0.95001851851852
4	8313	20000	0.94840074074074
4	8313	20000	0.94837962962963
4	8313	20000	0.94837962962963
4	10437	25000	0.94658851851852
4	10437	25000	0.94656018518519
4	10437	25000	0.94656018518519
4	10641	25500	0.9464012962963
4	10641	25500	0.94636574074074
4	10869	26000	0.93263240740741
4	10869	26000	0.93203703703704
4	11865	28500	0.91644814814815
4	11865	28500	0.9160462962963
4	12485	30000	0.9155262962963
4	12485	30000	0.91549074074074
4	12485	30000	0.91549074074074
4	14633	35000	0.91369240740741
4	14633	35000	0.9136712962963
4	14633	35000	0.9136712962963
4	16037	38500	0.91242185185185
4	16037	38500	0.91239351851852
4	16241	39000	0.89980462962963
4	16241	39000	0.89806481481481
4	16669	40000	0.89193148148148
4	16669	40000	0.89165740740741
4	16669	40000	0.89165740740741
4	17401	41500	0.88232962962963
4	17401	41500	0.88205555555556
4	18805	45000	0.88081333333333
4	18805	45000	0.88077777777778
4	18805	45000	0.88077777777778
4	20841	50000	0.87897944444444
4	20841	50000	0.87895833333333
4	20841	50000	0.87895833333333
4	21573	51500	0.87842388888889
4	21573	51500	0.87840277777778
4	21777	52000	0.86524166666667
4	21777	52000	0.86407407407407
4	22797	54500	0.84822962962963
4	22797	54500	0.84808333333333
4	23001	55000	0.84791722222222
4	23001	55000	0.84788888888889
4	23001	55000	0.84788888888889
4	25013	60000	0.846105
4	25013	60000	0.84606944444444
4	25013	60000	0.84606944444444
4	26945	64500	0.84446611111111
4	26945	64500	0.84443055555556
4	27173	65000	0.83069722222222
4	27173	65000	0.83010185185185
4	27173	65000	0.83010185185185
4	27185	65000	0.83010185185185
4	27185	65000	0.8300787037037
4	28181	67500	0.81448981481481
4	28181	67500	0.81408796296296
4	29209	70000	0.81319962962963
4	29209	70000	0.8131712962963
4	29209	70000	0.8131712962963
4	31333	75000	0.81138740740741
4	31333	75000	0.81135185185185
4	31333	75000	0.81135185185185
4	32353	77500	0.81046351851852
4	32353	77500	0.81043518518519
4	32557	78000	0.7978462962963
4	32557	78000	0.79610648148148
4	33393	80000	0.78345648148148
4	33393	80000	0.78331018518519
4	33393	80000	0.78331018518519
4	33717	80500	0.7803712962963
4	33717	80500	0.78009722222222
4	35529	85000	0.77848666666667
4	35529	85000	0.77845833333333
4	35529	85000	0.77845833333333
4	37541	90000	0.77667444444444
4	37541	90000	0.77663888888889
4	37541	90000	0.77663888888889
4	37889	90500	0.77646555555556
4	37889	90500	0.77644444444444
4	38093	91000	0.76328333333333
4	38093	91000	0.76211574074074
4	39113	93500	0.7462712962963
4	39113	93500	0.746125
4	39725	95000	0.74559055555556
4	39725	95000	0.74556944444444
4	39725	95000	0.74556944444444
4	41737	100000	0.74377833333333
4	41737	100000	0.74375
4	41737	100000	0.74375
4	43261	103500	0.74250777777778
4	43261	103500	0.74247222222222
4	43489	104000	0.72873888888889
4	43489	104000	0.72814351851852
4	43885	105000	0.72213796296296
4	43885	105000	0.72173611111111
4	43885	105000	0.72173611111111
4	44497	106500	0.71253611111111
4	44497	106500	0.71213425925926
4	45933	110000	0.71087759259259
4	45933	110000	0.71085648148148
4	45933	110000	0.71085648148148
4	48057	115000	0.70906537037037
4	48057	115000	0.70903703703704
4	48057	115000	0.70903703703704
4	48669	116500	0.70850981481481
4	48669	116500	0.70848148148148
4	48873	117000	0.69589259259259
4	48873	117000	0.69415277777778
4	49893	119500	0.67843611111111
4	49893	119500	0.67816203703704
4	50105	120000	0.67800314814815
4	50105	120000	0.67796759259259
4	50105	120000	0.67796759259259
4	52253	125000	0.67616925925926
4	52253	125000	0.67614814814815
4	52253	125000	0.67614814814815
4	54065	129500	0.67453037037037
4	54065	129500	0.67450925925926
4	54277	130000	0.66134814814815
4	54277	130000	0.66018055555556
4	54277	130000	0.66018055555556
4	54289	130000	0.66018055555556
4	54289	130000	0.66015740740741
4	55429	132500	0.64431296296296
4	55429	132500	0.64416666666667
4	56425	135000	0.64328555555556
4	56425	135000	0.64325
4	56425	135000	0.64325
4	58461	140000	0.64145166666667
4	58461	140000	0.64143055555556
4	58461	140000	0.64143055555556
4	59577	142500	0.64054944444444
4	59577	142500	0.64051388888889
4	59805	143000	0.62678055555556
4	59805	143000	0.62618518518519
4	60597	145000	0.61366296296296
4	60597	145000	0.61338888888889
4	60597	145000	0.61338888888889
4	60765	145500	0.61057777777778
4	60765	145500	0.61017592592593
4	62277	150000	0.60857259259259
4	62277	150000	0.60853703703704
4	62277	150000	0.60853703703704
4	63989	155000	0.6067387037037
4	63989	155000	0.60671759259259
4	63989	155000	0.60671759259259
4	64157	155500	0.60655148148148
4	64157	155500	0.60652314814815
4	64325	156000	0.59393425925926
4	64325	156000	0.59219444444444
4	65173	158500	0.57647777777778
4	65173	158500	0.5762037037037
4	65685	160000	0.57567648148148
4	65685	160000	0.57564814814815
4	65685	160000	0.57564814814815
4	67377	165000	0.57386425925926
4	67377	165000	0.5738287037037
4	67377	165000	0.5738287037037
4	68565	168500	0.57257203703704
4	68565	168500	0.57255092592593
4	68733	169000	0.55938981481481
4	68733	169000	0.55822222222222
4	69085	170000	0.55196111111111
4	69085	170000	0.55181481481481
4	69085	170000	0.55181481481481
4	69617	171500	0.54235925925926
4	69617	171500	0.54221296296296
4	70785	175000	0.54096351851852
4	70785	175000	0.54093518518519
4	70785	175000	0.54093518518519
4	72457	180000	0.5391512962963
4	72457	180000	0.53911574074074
4	72457	180000	0.53911574074074
4	72989	181500	0.53859574074074
4	72989	181500	0.53856018518519
4	73177	182000	0.52482685185185
4	73177	182000	0.52423148148148
4	74005	184500	0.50864259259259
4	74005	184500	0.50824074074074
4	74193	185000	0.50806740740741
4	74193	185000	0.5080462962963
4	74193	185000	0.5080462962963
4	75865	190000	0.50625518518519
4	75865	190000	0.50622685185185
4	75865	190000	0.50622685185185
4	77397	194500	0.5046162962963
4	77397	194500	0.50458796296296
4	77565	195000	0.49199907407407
4	77565	195000	0.49025925925926
4	77565	195000	0.49025925925926
4	77573	195000	0.49025925925926
4	77573	195000	0.49023611111111
4	78421	197500	0.47451944444444
4	78421	197500	0.47424537037037
4	79273	200000	0.47334981481481
4	79273	200000	0.4733287037037
4	79273	200000	0.4733287037037
4	80965	205000	0.47153759259259
4	80965	205000	0.47150925925926
4	80965	205000	0.47150925925926
4	81813	207500	0.4706137037037
4	81813	207500	0.47059259259259
4	81981	208000	0.45743148148148
4	81981	208000	0.45626388888889
4	82653	210000	0.44386944444444
4	82653	210000	0.44346759259259
4	82653	210000	0.44346759259259
4	82865	210500	0.44040092592593
4	82865	210500	0.44025462962963
4	84373	215000	0.43863685185185
4	84373	215000	0.43861574074074
4	84373	215000	0.43861574074074
4	86045	220000	0.43682462962963
4	86045	220000	0.4367962962963
4	86045	220000	0.4367962962963
4	86237	220500	0.43663740740741
4	86237	220500	0.43660185185185
4	86425	221000	0.42286851851852
4	86425	221000	0.42227314814815
4	87253	223500	0.40668425925926
4	87253	223500	0.40628240740741
4	87761	225000	0.40576240740741
4	87761	225000	0.40572685185185
4	87761	225000	0.40572685185185
4	89453	230000	0.40392851851852
4	89453	230000	0.40390740740741
4	89453	230000	0.40390740740741
4	90645	233500	0.40265796296296
4	90645	233500	0.40262962962963
4	90813	234000	0.39004074074074
4	90813	234000	0.38830092592593
4	91161	235000	0.38216759259259
4	91161	235000	0.38189351851852
4	91161	235000	0.38189351851852
4	91669	236500	0.37256574074074
4	91669	236500	0.37229166666667
4	92841	240000	0.37104944444444
4	92841	240000	0.37101388888889
4	92841	240000	0.37101388888889
4	94553	245000	0.36921555555556
4	94553	245000	0.36919444444444
4	94553	245000	0.36919444444444
4	95061	246500	0.36866
4	95061	246500	0.36863888888889
4	95229	247000	0.35547777777778
4	95229	247000	0.35431018518519
4	96077	249500	0.33846574074074
4	96077	249500	0.33831944444444
4	96249	250000	0.33815333333333
4	96249	250000	0.338125
4	96249	250000	0.338125
4	97941	255000	0.33634111111111
4	97941	255000	0.33630555555556
4	97941	255000	0.33630555555556
5	0	0	10800000
5	1085	2500	10630260
5	1085	2500	10627300
5	2105	5000	10617628
5	2105	5000	10617400
5	2105	5000	10617400
5	4117	10000	10598056
5	4117	10000	10597750
5	4117	10000	10597750
5	5257	12500	10588078
5	5257	12500	10587850
5	5461	13000	10445710
5	5461	13000	10433100
5	6265	15000	10299240
5	6265	15000	10294900
5	6265	15000	10294900
5	6493	15500	10261780
5	6493	15500	10260200
5	8313	20000	10242728
5	8313	20000	10242500
5	8313	20000	10242500
5	10437	25000	10223156
5	10437	25000	10222850
5	10437	25000	10222850
5	10641	25500	10221134
5	10641	25500	10220750
5	10869	26000	10072430
5	10869	26000	10066000
5	11865	28500	9897640
5	11865	28500	9893300
5	12485	30000	9887684
5	12485	30000	9887300
5	12485	30000	9887300
5	14633	35000	9867878
5	14633	35000	9867650
5	14633	35000	9867650
5	16037	38500	9854156
5	16037	38500	9853850
5	16241	39000	9717890
5	16241	39000	9699100
5	16669	40000	9632860
5	16669	40000	9629900
5	16669	40000	9629900
5	17401	41500	9529160
5	17401	41500	9526200
5	18805	45000	9512784
5	18805	45000	9512400
5	18805	45000	9512400
5	20841	50000	9492978
5	20841	50000	9492750
5	20841	50000	9492750
5	21573	51500	9486978
5	21573	51500	9486750
5	21777	52000	9344610
5	21777	52000	9332000
5	22797	54500	9160880
5	22797	54500	9159300
5	23001	55000	9157506
5	23001	55000	9157200
5	23001	55000	9157200
5	25013	60000	9137934
5	25013	60000	9137550
5	25013	60000	9137550
5	26945	64500	9120234
5	26945	64500	9119850
5	27173	65000	8971530
5	27173	65000	8965100
5	27173	65000	8965100
5	27185	65000	8965100
5	27185	65000	8964850
5	28181	67500	8796490
5	28181	67500	8792150
5	29209	70000	8782556
5	29209	70000	8782250
5	29209	70000	8782250
5	31333	75000	8762984
5	31333	75000	8762600
5	31333	75000	8762600
5	32353	77500	8753006
5	32353	77500	8752700
5	32557	78000	8616740
5	32557	78000	8597950
5	33393	80000	8461330
5	33393	80000	8459750
5	33393	80000	8459750
5	33717	80500	8428010
5	33717	80500	8425050
5	35529	85000	8407656
5	35529	85000	8407350
5	35529	85000	8407350
5	37541	90000	8388084
5	37541	90000	8387700
5	37541	90000	8387700
5	37889	90500	8385828
5	37889	90500	8385600
5	38093	91000	8243460
5	38093	91000	8230850
5	39113	93500	8059730
5	39113	93500	8058150
5	39725	95000	8052378
5	39725	95000	8052150
5	39725	95000	8052150
5	41737	100000	8032806
5	41737	100000	8032500
5	41737	100000	8032500
5	43261	103500	8019084
5	43261	103500	8018700
5	43489	104000	7870380
5	43489	104000	7863950
5	43885	105000	7799090
5	43885	105000	7794750
5	43885	105000	7794750
5	44497	106500	7695390
5	44497	106500	7691050
5	45933	110000	7677478
5	45933	110000	7677250
5	45933	110000	7677250
5	48057	115000	7657906
5	48057	115000	7657600
5	48057	115000	7657600
5	48669	116500	7651906
5	48669	116500	7651600
5	48873	117000	7515640
5	48873	117000	7496850
5	49893	119500	7327110
5	49893	119500	7324150
5	50105	120000	7322434
5	50105	120000	7322050
5	50105	120000	7322050
5	52253	125000	7302628
5	52253	125000	7302400
5	52253	125000	7302400
5	54065	129500	7284928
5	54065	129500	7284700
5	54277	130000	7142560
5	54277	130000	7129950
5	54277	130000	7129950
5	54289	130000	7129950
5	54289	130000	7129700
5	55429	132500	6958580
5	55429	132500	6957000
5	56425	135000	6947484
5	56425	135000	6947100
5	56425	135000	6947100
5	58461	140000	6927678
5	58461	140000	6927450
5	58461	140000	6927450
5	59577	142500	6917934
5	59577	142500	6917550
5	59805	143000	6769230
5	59805	143000	6762800
5	60597	145000	6627560
5	60597	145000	6624600
5	60597	145000	6624600
5	60765	145500	6594240
5	60765	145500	6589900
5	62277	150000	6572584
5	62277	150000	6572200
5	62277	150000	6572200
5	63989	155000	6552778
5	63989	155000	6552550
5	63989	155000	6552550
5	64157	155500	6550756
5	64157	155500	6550450
5	64325	156000	6414490
5	64325	156000	6395700
5	65173	158500	6225960
5	65173	158500	6223000
5	65685	160000	6217306
5	65685	160000	6217000
5	65685	160000	6217000
5	67377	165000	6197734
5	67377	165000	6197350
5	67377	165000	6197350
5	68565	168500	6183778
5	68565	168500	6183550
5	68733	169000	6041410
5	68733	169000	6028800
5	69085	170000	5961180
5	69085	170000	5959600
5	69085	170000	5959600
5	69617	171500	5857480
5	69617	171500	5855900
5	70785	175000	5842406
5	70785	175000	5842100
5	70785	175000	5842100
5	72457	180000	5822834
5	72457	180000	5822450
5	72457	180000	5822450
5	72989	181500	5816834
5	72989	181500	5816450
5	73177	182000	5668130
5	73177	182000	5661700
5	74005	184500	5493340
5	74005	184500	5489000
5	74193	185000	5487128
5	74193	185000	5486900
5	74193	185000	5486900
5	75865	190000	5467556
5	75865	190000	5467250
5	75865	190000	5467250
5	77397	194500	5449856
5	77397	194500	5449550
5	77565	195000	5313590
5	77565	195000	5294800
5	77565	195000	5294800
5	77573	195000	5294800
5	77573	195000	5294550
5	78421	197500	5124810
5	78421	197500	5121850
5	79273	200000	5112178
5	79273	200000	5111950
5	79273	200000	5111950
5	80965	205000	5092606
5	80965	205000	5092300
5	80965	205000	5092300
5	81813	207500	5082628
5	81813	207500	5082400
5	81981	208000	4940260
5	81981	208000	4927650
5	82653	210000	4793790
5	82653	210000	4789450
5	82653	210000	4789450
5	82865	210500	4756330
5	82865	210500	4754750
5	84373	215000	4737278
5	84373	215000	4737050
5	84373	215000	4737050
5	86045	220000	4717706
5	86045	220000	4717400
5	86045	220000	4717400
5	86237	220500	4715684
5	86237	220500	4715300
5	86425	221000	4566980
5	86425	221000	4560550
5	87253	223500	4392190
5	87253	223500	4387850
5	87761	225000	4382234
5	87761	225000	4381850
5	87761	225000	4381850
5	89453	230000	4362428
5	89453	230000	4362200
5	89453	230000	4362200
5	90645	233500	4348706
5	90645	233500	4348400
5	90813	234000	4212440
5	90813	234000	4193650
5	91161	235000	4127410
5	91161	235000	4124450
5	91161	235000	4124450
5	91669	236500	4023710
5	91669	236500	4020750
5	92841	240000	4007334
5	92841	240000	4006950
5	92841	240000	4006950
5	94553	245000	3987528
5	94553	245000	3987300
5	94553	245000	3987300
5	95061	246500	3981528
5	95061	246500	3981300
5	95229	247000	3839160
5	95229	247000	3826550
5	96077	249500	3655430
5	96077	249500	3653850
5	96249	250000	3652056
5	96249	250000	3651750
5	96249	250000	3651750
5	97941	255000	3632484
5	97941	255000	3632100
5	97941	255000	3632100
9	0	0	3
9	1086	2500	3
9	1086	2500	3
9	2106	5000	3
9	2106	5000	3
9	2106	5000	3
9	4118	10000	3
9	4118	10000	3
9	4118	10000	3
9	5258	12500	3
9	5258	12500	3
9	5462	13000	3
9	5462	13000	3
9	6266	15000	3
9	6266	15000	3
9	6266	15000	3
9	6494	15500	3
9	6494	15500	3
9	8314	20000	3
9	8314	20000	3
9	8314	20000	3
9	10438	25000	3
9	10438	25000	3
9	10438	25000	3
9	10642	25500	3
9	10642	25500	3
9	10870	26000	3
9	10870	26000	3
9	11866	28500	3
9	11866	28500	3
9	12486	30000	3
9	12486	30000	3
9	12486	30000	3
9	14634	35000	3
9	14634	35000	3
9	14634	35000	3
9	16038	38500	3
9	16038	38500	3
9	16242	39000	3
9	16242	39000	3
9	16670	40000	3
9	16670	40000	3
9	16670	40000	3
9	17402	41500	3
9	17402	41500	3
9	18806	45000	3
9	18806	45000	3
9	18806	45000	3
9	20842	50000	3
9	20842	50000	3
9	20842	50000	3
9	21574	51500	3
9	21574	51500	3
9	21778	52000	3
9	21778	52000	3
9	22798	54500	3
9	22798	54500	3
9	23002	55000	3
9	23002	55000	3
9	23002	55000	3
9	25014	60000	3
9	25014	60000	3
9	25014	60000	3
9	26946	64500	3
9	26946	64500	3
9	27174	65000	3
9	27174	65000	3
9	27174	65000	3
9	27186	65000	3
9	27186	65000	3
9	28182	67500	3
9	28182	67500	3
9	29210	70000	3
9	29210	70000	3
9	29210	70000	3
9	31334	75000	3
9	31334	75000	3
9	31334	75000	3
9	32354	77500	3
9	32354	77500	3
9	32558	78000	3
9	32558	78000	3
9	33394	80000	3
9	33394	80000	3
9	33394	80000	3
9	33718	80500	3
9	33718	80500	3
9	35530	85000	3
9	35530	85000	3
9	35530	85000	3
9	37542	90000	3
9	37542	90000	3
9	37542	90000	3
9	37890	90500	3
9	37890	90500	3
9	38094	91000	3
9	38094	91000	3
9	39114	93500	3
9	39114	93500	3
9	39726	95000	3
9	39726	95000	3
9	39726	95000	3
9	41738	100000	3
9	41738	100000	3
9	41738	100000	3
9	43262	103500	3
9	43262	103500	3
9	43490	104000	3
9	43490	104000	3
9	43886	105000	3
9	43886	105000	3
9	43886	105000	3
9	44498	106500	3
9	44498	106500	3
9	45934	110000	3
9	45934	110000	3
9	45934	110000	3
9	48058	115000	3
9	48058	115000	3
9	48058	115000	3
9	48670	116500	3
9	48670	116500	3
9	48874	117000	3
9	48874	117000	3
9	49894	119500	3
9	49894	119500	3
9	50106	120000	3
9	50106	120000	3
9	50106	120000	3
9	52254	125000	3
9	52254	125000	3
9	52254	125000	3
9	54066	129500	3
9	54066	129500	3
9	54278	130000	3
9	54278	130000	3
9	54278	130000	3
9	54290	130000	3
9	54290	130000	3
9	55430	132500	3
9	55430	132500	3
9	56426	135000	3
9	56426	135000	3
9	56426	135000	3
9	58462	140000	3
9	58462	140000	3
9	58462	140000	3
9	59578	142500	3
9	59578	142500	3
9	59806	143000	3
9	59806	143000	3
9	60598	145000	3
9	60598	145000	3
9	60598	145000	3
9	60766	145500	3
9	60766	145500	3
9	62278	150000	3
9	62278	150000	3
9	62278	150000	3
9	63990	155000	3
9	63990	155000	3
9	63990	155000	3
9	64158	155500	3
9	64158	155500	3
9	64326	156000	3
9	64326	156000	3
9	65174	158500	3
9	65174	158500	3
9	65686	160000	3
9	65686	160000	3
9	65686	160000	3
9	67378	165000	3
9	67378	165000	3
9	67378	165000	3
9	68566	168500	3
9	68566	168500	3
9	68734	169000	3
9	68734	169000	3
9	69086	170000	3
9	69086	170000	3
9	69086	170000	3
9	69618	171500	3
9	69618	171500	3
9	70786	175000	3
9	70786	175000	3
9	70786	175000	3
9	72458	180000	3
9	72458	180000	3
9	72458	180000	3
9	72990	181500	3
9	72990	181500	3
9	73178	182000	3
9	73178	182000	3
9	74006	184500	3
9	74006	184500	3
9	74194	185000	3
9	74194	185000	3
9	74194	185000	3
9	75866	190000	3
9	75866	190000	3
9	75866	190000	3
9	77398	194500	3
9	77398	194500	3
9	77566	195000	3
9	77566	195000	3
9	77566	195000	3
9	77574	195000	3
9	77574	195000	3
9	78422	197500	3
9	78422	197500	3
9	79274	200000	3
9	79274	200000	3
9	79274	200000	3
9	80966	205000	3
9	80966	205000	3
9	80966	205000	3
9	81814	207500	3
9	81814	207500	3
9	81982	208000	3
9	81982	208000	3
9	82654	210000	3
9	82654	210000	3
9	82654	210000	3
9	82866	210500	3
9	82866	210500	3
9	84374	215000	3
9	84374	215000	3
9	84374	215000	3
9	86046	220000	3
9	86046	220000	3
9	86046	220000	3
9	86238	220500	3
9	86238	220500	3
9	86426	221000	3
9	86426	221000	3
9	87254	223500	3
9	87254	223500	3
9	87762	225000	3
9	87762	225000	3
9	87762	225000	3
9	89454	230000	3
9	89454	230000	3
9	89454	230000	3
9	90646	233500	3
9	90646	233500	3
9	90814	234000	3
9	90814	234000	3
9	91162	235000	3
9	91162	235000	3
9	91162	235000	3
9	91670	236500	3
9	91670	236500	3
9	92842	240000	3
9	92842	240000	3
9	92842	240000	3
9	94554	245000	3
9	94554	245000	3
9	94554	245000	3
9	95062	246500	3
9	95062	246500	3
9	95230	247000	3
9	95230	247000	3
9	96078	249500	3
9	96078	249500	3
9	96250	250000	3
9	96250	250000	3
9	96250	250000	3
9	97942	255000	3
9	97942	255000	3
9	97942	255000	3
10	0	0	1
10	1086	2500	0.98428333333333
10	1086	2500	0.98400925925926
10	2106	5000	0.9831137037037
10	2106	5000	0.98309259259259
10	2106	5000	0.98309259259259
10	4118	10000	0.98130148148148
10	4118	10000	0.98127314814815
10	4118	10000	0.98127314814815
10	5258	12500	0.98037759259259
10	5258	12500	0.98035648148148
10	5462	13000	0.96719537037037
10	5462	13000	0.96602777777778
10	6266	15000	0.95363333333333
10	6266	15000	0.95323148148148
10	6266	15000	0.95323148148148
10	6494	15500	0.95016481481481
10	6494	15500	0.95001851851852
10	8314	20000	0.94840074074074
10	8314	20000	0.94837962962963
10	8314	20000	0.94837962962963
10	10438	25000	0.94658851851852
10	10438	25000	0.94656018518519
10	10438	25000	0.94656018518519
10	10642	25500	0.9464012962963
10	10642	25500	0.94636574074074
10	10870	26000	0.93263240740741
10	10870	26000	0.93203703703704
10	11866	28500	0.91644814814815
10	11866	28500	0.9160462962963
10	12486	30000	0.9155262962963
10	12486	30000	0.91549074074074
10	12486	30000	0.91549074074074
10	14634	35000	0.91369240740741
10	14634	35000	0.9136712962963
10	14634	35000	0.9136712962963
10	16038	38500	0.91242185185185
10	16038	38500	0.91239351851852
10	16242	39000	0.89980462962963
10	16242	39000	0.89806481481481
10	16670	40000	0.89193148148148
10	16670	40000	0.89165740740741
10	16670	40000	0.89165740740741
10	17402	41500	0.88232962962963
10	17402	41500	0.88205555555556
10	18806	45000	0.88081333333333
10	18806	45000	0.88077777777778
10	18806	45000	0.88077777777778
10	20842	50000	0.87897944444444
10	20842	50000	0.87895833333333
10	20842	50000	0.87895833333333
10	21574	51500	0.87842388888889
10	21574	51500	0.87840277777778
10	21778	52000	0.86524166666667
10	21778	52000	0.86407407407407
10	22798	54500	0.84822962962963
10	22798	54500	0.84808333333333
10	23002	55000	0.84791722222222
10	23002	55000	0.84788888888889
10	23002	55000	0.84788888888889
10	25014	60000	0.846105
10	25014	60000	0.84606944444444
10	25014	60000	0.84606944444444
10	26946	64500	0.84446611111111
10	26946	64500	0.84443055555556
10	27174	65000	0.83069722222222
10	27174	65000	0.83010185185185
10	27174	65000	0.83010185185185
10	27186	65000	0.83010185185185
10	27186	65000	0.8300787037037
10	28182	67500	0.81448981481481
10	28182	67500	0.81408796296296
10	29210	70000	0.81319962962963
10	29210	70000	0.8131712962963
10	29210	70000	0.8131712962963
10	31334	75000	0.81138740740741
10	31334	75000	0.81135185185185
10	31334	75000	0.81135185185185
10	32354	77500	0.81046351851852
10	32354	77500	0.81043518518519
10	32558	78000	0.7978462962963
10	32558	78000	0.79610648148148
10	33394	80000	0.78345648148148
10	33394	80000	0.78331018518519
10	33394	80000	0.78331018518519
10	33718	80500	0.7803712962963
10	33718	80500	0.78009722222222
10	35530	85000	0.77848666666667
10	35530	85000	0.77845833333333
10	35530	85000	0.77845833333333
10	37542	90000	0.77667444444444
10	37542	90000	0.77663888888889
10	37542	90000	0.77663888888889
10	37890	90500	0.77646555555556
10	37890	90500	0.77644444444444
10	38094	91000	0.76328333333333
10	38094	91000	0.76211574074074
10	39114	93500	0.7462712962963
10	39114	93500	0.746125
10	39726	95000	0.74559055555556
10	39726	95000	0.74556944444444
10	39726	95000	0.74556944444444
10	41738	100000	0.74377833333333
10	41738	100000	0.74375
10	41738	100000	0.74375
10	43262	103500	0.74250777777778
10	43262	103500	0.74247222222222
10	43490	104000	0.72873888888889
10	43490	104000	0.72814351851852
10	43886	105000	0.72213796296296
10	43886	105000	0.72173611111111
10	43886	105000	0.72173611111111
10	44498	106500	0.71253611111111
10	44498	106500	0.71213425925926
10	45934	110000	0.71087759259259
10	45934	110000	0.71085648148148
10	45934	110000	0.71085648148148
10	48058	115000	0.70906537037037
10	48058	115000	0.70903703703704
10	48058	115000	0.70903703703704
10	48670	116500	0.70850981481481
10	48670	116500	0.70848148148148
10	48874	117000	0.69589259259259
10	48874	117000	0.69415277777778