version 2
run General-0-20150513-11:57:49-6359
attr configname General
attr datetime 20150513-11:57:49
attr experiment General
attr inifile omnetpp.ini
attr iterationvars ""
attr iterationvars2 $repetition=0
attr measurement ""
attr network BasicExample
attr processid 6359
attr repetition 0
attr replication #0
attr resultdir results
attr runnumber 0
attr seedset 0

vector 3  BasicExample.SensorNode[0].Processor  "power mode"  ETV
vector 4  BasicExample.SensorNode[0].Processor  Voltage  ETV
vector 5  BasicExample.SensorNode[0].Processor  residualRelative  ETV
vector 6  BasicExample.SensorNode[0].Processor  residualAbs  ETV
vector 10  BasicExample.TNode[0].Processor  "power mode"  ETV
vector 11  BasicExample.TNode[0].Processor  Voltage  ETV
vector 12  BasicExample.TNode[0].Processor  residualRelative  ETV
vector 13  BasicExample.TNode[0].Processor  residualAbs  ETV
vector 17  BasicExample.TPNode[0].Processor  "power mode"  ETV
vector 18  BasicExample.TPNode[0].Processor  Voltage  ETV
vector 19  BasicExample.TPNode[0].Processor  residualRelative  ETV
vector 20  BasicExample.TPNode[0].Processor  residualAbs  ETV
vector 24  BasicExample.PHLNode[0].Processor  "power mode"  ETV
vector 25  BasicExample.PHLNode[0].Processor  Voltage  ETV
vector 26  BasicExample.PHLNode[0].Processor  residualRelative  ETV
vector 27  BasicExample.PHLNode[0].Processor  residualAbs  ETV
vector 31  BasicExample.TPHLNode[0].Processor  "power mode"  ETV
vector 32  BasicExample.TPHLNode[0].Processor  Voltage  ETV
vector 33  BasicExample.TPHLNode[0].Processor  residualRelative  ETV
vector 34  BasicExample.TPHLNode[0].Processor  residualAbs  ETV
3	0	0	0
3	0	0	0
3	1268	5000	1
3	2132	10000	2
3	3052	15000	0
3	3052	15000	0
3	3926	20000	1
3	4846	25000	2
3	5710	30000	0
3	5710	30000	0
3	6640	35000	1
3	7504	40000	2
3	8424	45000	0
3	8424	45000	0
3	9252	50000	1
3	10059	55000	2
3	10774	60000	0
3	10774	60000	0
3	11409	65000	1
3	12003	70000	2
3	12570	75000	0
3	12570	75000	0
3	13080	80000	1
3	13584	85000	2
4	0	0	3
4	578	1000	3
4	578	1000	3
4	578	1000	3
4	753	2000	3
4	753	2000	3
4	753	2000	3
4	918	3000	3
4	918	3000	3
4	918	3000	3
4	1093	4000	3
4	1093	4000	3
4	1093	4000	3
4	1268	5000	3
4	1268	5000	3
4	1273	5000	3
4	1273	5000	3
4	1273	5000	3
4	1438	6000	3
4	1438	6000	3
4	1438	6000	3
4	1613	7000	3
4	1613	7000	3
4	1613	7000	3
4	1788	8000	3
4	1788	8000	3
4	1788	8000	3
4	1953	9000	3
4	1953	9000	3
4	1953	9000	3
4	2132	10000	3
4	2132	10000	3
4	2137	10000	3
4	2137	10000	3
4	2137	10000	3
4	2372	11000	3
4	2372	11000	3
4	2372	11000	3
4	2537	12000	3
4	2537	12000	3
4	2537	12000	3
4	2712	13000	3
4	2712	13000	3
4	2712	13000	3
4	2887	14000	3
4	2887	14000	3
4	2887	14000	3
4	3052	15000	3
4	3052	15000	3
4	3057	15000	3
4	3057	15000	3
4	3057	15000	3
4	3232	16000	3
4	3232	16000	3
4	3232	16000	3
4	3407	17000	3
4	3407	17000	3
4	3407	17000	3
4	3572	18000	3
4	3572	18000	3
4	3572	18000	3
4	3747	19000	3
4	3747	19000	3
4	3747	19000	3
4	3926	20000	3
4	3926	20000	3
4	3931	20000	3
4	3931	20000	3
4	3931	20000	3
4	4156	21000	3
4	4156	21000	3
4	4156	21000	3
4	4331	22000	3
4	4331	22000	3
4	4331	22000	3
4	4506	23000	3
4	4506	23000	3
4	4506	23000	3
4	4671	24000	3
4	4671	24000	3
4	4671	24000	3
4	4846	25000	3
4	4846	25000	3
4	4851	25000	3
4	4851	25000	3
4	4851	25000	3
4	5026	26000	3
4	5026	26000	3
4	5026	26000	3
4	5191	27000	3
4	5191	27000	3
4	5191	27000	3
4	5366	28000	3
4	5366	28000	3
4	5366	28000	3
4	5541	29000	3
4	5541	29000	3
4	5541	29000	3
4	5710	30000	3
4	5710	30000	3
4	5715	30000	3
4	5715	30000	3
4	5715	30000	3
4	5950	31000	3
4	5950	31000	3
4	5950	31000	3
4	6125	32000	3
4	6125	32000	3
4	6125	32000	3
4	6290	33000	3
4	6290	33000	3
4	6290	33000	3
4	6465	34000	3
4	6465	34000	3
4	6465	34000	3
4	6640	35000	3
4	6640	35000	3
4	6645	35000	3
4	6645	35000	3
4	6645	35000	3
4	6810	36000	3
4	6810	36000	3
4	6810	36000	3
4	6985	37000	3
4	6985	37000	3
4	6985	37000	3
4	7160	38000	3
4	7160	38000	3
4	7160	38000	3
4	7325	39000	3
4	7325	39000	3
4	7325	39000	3
4	7504	40000	3
4	7504	40000	3
4	7509	40000	3
4	7509	40000	3
4	7509	40000	3
4	7744	41000	3
4	7744	41000	3
4	7744	41000	3
4	7909	42000	3
4	7909	42000	3
4	7909	42000	3
4	8084	43000	3
4	8084	43000	3
4	8084	43000	3
4	8259	44000	3
4	8259	44000	3
4	8259	44000	3
4	8424	45000	3
4	8424	45000	3
4	8429	45000	3
4	8429	45000	3
4	8429	45000	3
4	8604	46000	3
4	8604	46000	3
4	8604	46000	3
4	8779	47000	3
4	8779	47000	3
4	8779	47000	3
4	8935	48000	3
4	8935	48000	3
4	8935	48000	3
4	9092	49000	3
4	9092	49000	3
4	9092	49000	3
4	9252	50000	3
4	9252	50000	3
4	9256	50000	3
4	9256	50000	3
4	9256	50000	3
4	9440	51000	3
4	9440	51000	3
4	9440	51000	3
4	9597	52000	3
4	9597	52000	3
4	9597	52000	3
4	9754	53000	3
4	9754	53000	3
4	9754	53000	3
4	9902	54000	3
4	9902	54000	3
4	9902	54000	3
4	10059	55000	3
4	10059	55000	3
4	10063	55000	3
4	10063	55000	3
4	10063	55000	3
4	10220	56000	3
4	10220	56000	3
4	10220	56000	3
4	10363	57000	3
4	10363	57000	3
4	10363	57000	3
4	10502	58000	3
4	10502	58000	3
4	10502	58000	3
4	10641	59000	3
4	10641	59000	3
4	10641	59000	3
4	10774	60000	3
4	10774	60000	3
4	10777	60000	3
4	10777	60000	3
4	10777	60000	3
4	10932	61000	3
4	10932	61000	3
4	10932	61000	3
4	11053	62000	3
4	11053	62000	3
4	11053	62000	3
4	11167	63000	3
4	11167	63000	3
4	11167	63000	3
4	11288	64000	3
4	11288	64000	3
4	11288	64000	3
4	11409	65000	3
4	11409	65000	3
4	11411	65000	3
4	11411	65000	3
4	11411	65000	3
4	11525	66000	3
4	11525	66000	3
4	11525	66000	3
4	11646	67000	3
4	11646	67000	3
4	11646	67000	3
4	11767	68000	3
4	11767	68000	3
4	11767	68000	3
4	11881	69000	3
4	11881	69000	3
4	11881	69000	3
4	12003	70000	3
4	12003	70000	3
4	12005	70000	3
4	12005	70000	3
4	12005	70000	3
4	12132	71000	3
4	12132	71000	3
4	12132	71000	3
4	12246	72000	3
4	12246	72000	3
4	12246	72000	3
4	12367	73000	3
4	12367	73000	3
4	12367	73000	3
4	12473	74000	3
4	12473	74000	3
4	12473	74000	3
4	12570	75000	3
4	12570	75000	3
4	12571	75000	3
4	12571	75000	3
4	12571	75000	3
4	12674	76000	3
4	12674	76000	3
4	12674	76000	3
4	12777	77000	3
4	12777	77000	3
4	12777	77000	3
4	12874	78000	3
4	12874	78000	3
4	12874	78000	3
4	12977	79000	3
4	12977	79000	3
4	12977	79000	3
4	13080	80000	3
4	13080	80000	3
4	13081	80000	3
4	13081	80000	3
4	13081	80000	3
4	13178	81000	3
4	13178	81000	3
4	13178	81000	3
4	13281	82000	3
4	13281	82000	3
4	13281	82000	3
4	13384	83000	3
4	13384	83000	3
4	13384	83000	3
4	13481	84000	3
4	13481	84000	3
4	13481	84000	3
4	13584	85000	3
4	13584	85000	3
4	13585	85000	3
4	13585	85000	3
4	13585	85000	3
4	13688	86000	3
4	13688	86000	3
4	13688	86000	3
4	13785	87000	3
4	13785	87000	3
4	13785	87000	3
5	0	0	1
5	578	1000	0.99386666666667
5	578	1000	0.99386666666667
5	578	1000	0.99359259259259
5	753	2000	0.98733148148148
5	753	2000	0.98733148148148
5	753	2000	0.98718518518519
5	918	3000	0.98117962962963
5	918	3000	0.98117962962963
5	918	3000	0.98077777777778
5	1093	4000	0.97464444444444
5	1093	4000	0.97464444444444
5	1093	4000	0.97437037037037
5	1268	5000	0.96798148148148
5	1268	5000	0.96796759259259
5	1273	5000	0.96796759259259
5	1273	5000	0.96796759259259
5	1273	5000	0.9679537037037
5	1438	6000	0.96761425925926
5	1438	6000	0.96761425925926
5	1438	6000	0.9675787037037
5	1613	7000	0.96723203703704
5	1613	7000	0.96723203703704
5	1613	7000	0.9672037037037
5	1788	8000	0.96684981481481
5	1788	8000	0.96684981481481
5	1788	8000	0.9668287037037
5	1953	9000	0.96648925925926
5	1953	9000	0.96648925925926
5	1953	9000	0.9664537037037
5	2132	10000	0.96609259259259
5	2132	10000	0.96606944444444
5	2137	10000	0.96606944444444
5	2137	10000	0.96606944444444
5	2137	10000	0.9660462962963
5	2372	11000	0.93800740740741
5	2372	11000	0.93800740740741
5	2372	11000	0.93741203703704
5	2537	12000	0.91051759259259
5	2537	12000	0.91051759259259
5	2537	12000	0.90877777777778
5	2712	13000	0.88131111111111
5	2712	13000	0.88131111111111
5	2712	13000	0.88014351851852
5	2887	14000	0.85210462962963
5	2887	14000	0.85210462962963
5	2887	14000	0.85150925925926
5	3052	15000	0.82289814814815
5	3052	15000	0.82287962962963
5	3057	15000	0.82287962962963
5	3057	15000	0.82287962962963
5	3057	15000	0.82286111111111
5	3232	16000	0.81672777777778
5	3232	16000	0.81672777777778
5	3232	16000	0.8164537037037
5	3407	17000	0.81019259259259
5	3407	17000	0.81019259259259
5	3407	17000	0.8100462962963
5	3572	18000	0.80404074074074
5	3572	18000	0.80404074074074
5	3572	18000	0.80363888888889
5	3747	19000	0.79750555555556
5	3747	19000	0.79750555555556
5	3747	19000	0.79723148148148
5	3926	20000	0.79084259259259
5	3926	20000	0.7908287037037
5	3931	20000	0.7908287037037
5	3931	20000	0.7908287037037
5	3931	20000	0.79081481481481
5	4156	21000	0.79047537037037
5	4156	21000	0.79047537037037
5	4156	21000	0.79043981481481
5	4331	22000	0.79009314814815
5	4331	22000	0.79009314814815
5	4331	22000	0.79006481481481
5	4506	23000	0.78971092592593
5	4506	23000	0.78971092592593
5	4506	23000	0.78968981481481
5	4671	24000	0.78935037037037
5	4671	24000	0.78935037037037
5	4671	24000	0.78931481481481
5	4846	25000	0.7889537037037
5	4846	25000	0.78893055555556
5	4851	25000	0.78893055555556
5	4851	25000	0.78893055555556
5	4851	25000	0.78890740740741
5	5026	26000	0.76086851851852
5	5026	26000	0.76086851851852
5	5026	26000	0.76027314814815
5	5191	27000	0.7333787037037
5	5191	27000	0.7333787037037
5	5191	27000	0.73163888888889
5	5366	28000	0.70417222222222
5	5366	28000	0.70417222222222
5	5366	28000	0.70300462962963
5	5541	29000	0.67496574074074
5	5541	29000	0.67496574074074
5	5541	29000	0.67437037037037
5	5710	30000	0.64575925925926
5	5710	30000	0.64574074074074
5	5715	30000	0.64574074074074
5	5715	30000	0.64574074074074
5	5715	30000	0.64572222222222
5	5950	31000	0.63958888888889
5	5950	31000	0.63958888888889
5	5950	31000	0.63931481481481
5	6125	32000	0.6330537037037
5	6125	32000	0.6330537037037
5	6125	32000	0.63290740740741
5	6290	33000	0.62690185185185
5	6290	33000	0.62690185185185
5	6290	33000	0.6265
5	6465	34000	0.62036666666667
5	6465	34000	0.62036666666667
5	6465	34000	0.62009259259259
5	6640	35000	0.6137037037037
5	6640	35000	0.61368981481481
5	6645	35000	0.61368981481481
5	6645	35000	0.61368981481481
5	6645	35000	0.61367592592593
5	6810	36000	0.61333648148148
5	6810	36000	0.61333648148148
5	6810	36000	0.61330092592593
5	6985	37000	0.61295425925926
5	6985	37000	0.61295425925926
5	6985	37000	0.61292592592593
5	7160	38000	0.61257203703704
5	7160	38000	0.61257203703704
5	7160	38000	0.61255092592593
5	7325	39000	0.61221148148148
5	7325	39000	0.61221148148148
5	7325	39000	0.61217592592593
5	7504	40000	0.61181481481481
5	7504	40000	0.61179166666667
5	7509	40000	0.61179166666667
5	7509	40000	0.61179166666667
5	7509	40000	0.61176851851852
5	7744	41000	0.58372962962963
5	7744	41000	0.58372962962963
5	7744	41000	0.58313425925926
5	7909	42000	0.55623981481481
5	7909	42000	0.55623981481481
5	7909	42000	0.5545
5	8084	43000	0.52703333333333
5	8084	43000	0.52703333333333
5	8084	43000	0.52586574074074
5	8259	44000	0.49782685185185
5	8259	44000	0.49782685185185
5	8259	44000	0.49723148148148
5	8424	45000	0.46862037037037
5	8424	45000	0.46860185185185
5	8429	45000	0.46860185185185
5	8429	45000	0.46860185185185
5	8429	45000	0.46858333333333
5	8604	46000	0.46245
5	8604	46000	0.46245
5	8604	46000	0.46217592592593
5	8779	47000	0.45591481481481
5	8779	47000	0.45591481481481
5	8779	47000	0.45576851851852
5	8935	48000	0.44976296296296
5	8935	48000	0.44976296296296
5	8935	48000	0.44936111111111
5	9092	49000	0.44322777777778
5	9092	49000	0.44322777777778
5	9092	49000	0.4429537037037
5	9252	50000	0.43656481481481
5	9252	50000	0.43655092592593
5	9256	50000	0.43655092592593
5	9256	50000	0.43655092592593
5	9256	50000	0.43653703703704
5	9440	51000	0.43619759259259
5	9440	51000	0.43619759259259
5	9440	51000	0.43616203703704
5	9597	52000	0.43581537037037
5	9597	52000	0.43581537037037
5	9597	52000	0.43578703703704
5	9754	53000	0.43543314814815
5	9754	53000	0.43543314814815
5	9754	53000	0.43541203703704
5	9902	54000	0.43507259259259
5	9902	54000	0.43507259259259
5	9902	54000	0.43503703703704
5	10059	55000	0.43467592592593
5	10059	55000	0.43465277777778
5	10063	55000	0.43465277777778
5	10063	55000	0.43465277777778
5	10063	55000	0.43462962962963
5	10220	56000	0.40659074074074
5	10220	56000	0.40659074074074
5	10220	56000	0.40599537037037
5	10363	57000	0.37910092592593
5	10363	57000	0.37910092592593
5	10363	57000	0.37736111111111
5	10502	58000	0.34989444444444
5	10502	58000	0.34989444444444
5	10502	58000	0.34872685185185
5	10641	59000	0.32068796296296
5	10641	59000	0.32068796296296
5	10641	59000	0.32009259259259
5	10774	60000	0.29148148148148
5	10774	60000	0.29146296296296
5	10777	60000	0.29146296296296
5	10777	60000	0.29146296296296
5	10777	60000	0.29144444444444
5	10932	61000	0.28531111111111
5	10932	61000	0.28531111111111
5	10932	61000	0.28503703703704
5	11053	62000	0.27877592592593
5	11053	62000	0.27877592592593
5	11053	62000	0.27862962962963
5	11167	63000	0.27262407407407
5	11167	63000	0.27262407407407
5	11167	63000	0.27222222222222
5	11288	64000	0.26608888888889
5	11288	64000	0.26608888888889
5	11288	64000	0.26581481481481
5	11409	65000	0.25942592592593
5	11409	65000	0.25941203703704
5	11411	65000	0.25941203703704
5	11411	65000	0.25941203703704
5	11411	65000	0.25939814814815
5	11525	66000	0.2590587037037
5	11525	66000	0.2590587037037
5	11525	66000	0.25902314814815
5	11646	67000	0.25867648148148
5	11646	67000	0.25867648148148
5	11646	67000	0.25864814814815
5	11767	68000	0.25829425925926
5	11767	68000	0.25829425925926
5	11767	68000	0.25827314814815
5	11881	69000	0.2579337037037
5	11881	69000	0.2579337037037
5	11881	69000	0.25789814814815
5	12003	70000	0.25753703703704
5	12003	70000	0.25751388888889
5	12005	70000	0.25751388888889
5	12005	70000	0.25751388888889
5	12005	70000	0.25749074074074
5	12132	71000	0.22945185185185
5	12132	71000	0.22945185185185
5	12132	71000	0.22885648148148
5	12246	72000	0.20196203703704
5	12246	72000	0.20196203703704
5	12246	72000	0.20022222222222
5	12367	73000	0.17275555555556
5	12367	73000	0.17275555555556
5	12367	73000	0.17158796296296
5	12473	74000	0.14354907407407
5	12473	74000	0.14354907407407
5	12473	74000	0.1429537037037
5	12570	75000	0.11434259259259
5	12570	75000	0.11432407407407
5	12571	75000	0.11432407407407
5	12571	75000	0.11432407407407
5	12571	75000	0.11430555555556
5	12674	76000	0.10817222222222
5	12674	76000	0.10817222222222
5	12674	76000	0.10789814814815
5	12777	77000	0.10163703703704
5	12777	77000	0.10163703703704
5	12777	77000	0.10149074074074
5	12874	78000	0.095485185185185
5	12874	78000	0.095485185185185
5	12874	78000	0.095083333333333
5	12977	79000	0.08895
5	12977	79000	0.08895
5	12977	79000	0.088675925925926
5	13080	80000	0.082287037037037
5	13080	80000	0.082273148148148
5	13081	80000	0.082273148148148
5	13081	80000	0.082273148148148
5	13081	80000	0.082259259259259
5	13178	81000	0.081919814814815
5	13178	81000	0.081919814814815
5	13178	81000	0.081884259259259
5	13281	82000	0.081537592592593
5	13281	82000	0.081537592592593
5	13281	82000	0.081509259259259
5	13384	83000	0.08115537037037
5	13384	83000	0.08115537037037
5	13384	83000	0.081134259259259
5	13481	84000	0.080794814814815
5	13481	84000	0.080794814814815
5	13481	84000	0.080759259259259
5	13584	85000	0.080398148148148
5	13584	85000	0.080375
5	13585	85000	0.080375
5	13585	85000	0.080375
5	13585	85000	0.080351851851852
5	13688	86000	0.052312962962963
5	13688	86000	0.052312962962963
5	13688	86000	0.051717592592593
5	13785	87000	0.024823148148148
5	13785	87000	0.024823148148148
5	13785	87000	0.023083333333333
6	0	0	10800000
6	578	1000	10733760
6	578	1000	10733760
6	578	1000	10730800
6	753	2000	10663180
6	753	2000	10663180
6	753	2000	10661600
6	918	3000	10596740
6	918	3000	10596740
6	918	3000	10592400
6	1093	4000	10526160
6	1093	4000	10526160
6	1093	4000	10523200
6	1268	5000	10454200
6	1268	5000	10454050
6	1273	5000	10454050
6	1273	5000	10454050
6	1273	5000	10453900
6	1438	6000	10450234
6	1438	6000	10450234
6	1438	6000	10449850
6	1613	7000	10446106
6	1613	7000	10446106
6	1613	7000	10445800
6	1788	8000	10441978
6	1788	8000	10441978
6	1788	8000	10441750
6	1953	9000	10438084
6	1953	9000	10438084
6	1953	9000	10437700
6	2132	10000	10433800
6	2132	10000	10433550
6	2137	10000	10433550
6	2137	10000	10433550
6	2137	10000	10433300
6	2372	11000	10130480
6	2372	11000	10130480
6	2372	11000	10124050
6	2537	12000	9833590
6	2537	12000	9833590
6	2537	12000	9814800
6	2712	13000	9518160
6	2712	13000	9518160
6	2712	13000	9505550
6	2887	14000	9202730
6	2887	14000	9202730
6	2887	14000	9196300
6	3052	15000	8887300
6	3052	15000	8887100
6	3057	15000	8887100
6	3057	15000	8887100
6	3057	15000	8886900
6	3232	16000	8820660
6	3232	16000	8820660
6	3232	16000	8817700
6	3407	17000	8750080
6	3407	17000	8750080
6	3407	17000	8748500
6	3572	18000	8683640
6	3572	18000	8683640
6	3572	18000	8679300
6	3747	19000	8613060
6	3747	19000	8613060
6	3747	19000	8610100
6	3926	20000	8541100
6	3926	20000	8540950
6	3931	20000	8540950
6	3931	20000	8540950
6	3931	20000	8540800
6	4156	21000	8537134
6	4156	21000	8537134
6	4156	21000	8536750
6	4331	22000	8533006
6	4331	22000	8533006
6	4331	22000	8532700
6	4506	23000	8528878
6	4506	23000	8528878
6	4506	23000	8528650
6	4671	24000	8524984
6	4671	24000	8524984
6	4671	24000	8524600
6	4846	25000	8520700
6	4846	25000	8520450
6	4851	25000	8520450
6	4851	25000	8520450
6	4851	25000	8520200
6	5026	26000	8217380
6	5026	26000	8217380
6	5026	26000	8210950
6	5191	27000	7920490
6	5191	27000	7920490
6	5191	27000	7901700
6	5366	28000	7605060
6	5366	28000	7605060
6	5366	28000	7592450
6	5541	29000	7289630
6	5541	29000	7289630
6	5541	29000	7283200
6	5710	30000	6974200
6	5710	30000	6974000
6	5715	30000	6974000
6	5715	30000	6974000
6	5715	30000	6973800
6	5950	31000	6907560
6	5950	31000	6907560
6	5950	31000	6904600
6	6125	32000	6836980
6	6125	32000	6836980
6	6125	32000	6835400
6	6290	33000	6770540
6	6290	33000	6770540
6	6290	33000	6766200
6	6465	34000	6699960
6	6465	34000	6699960
6	6465	34000	6697000
6	6640	35000	6628000
6	6640	35000	6627850
6	6645	35000	6627850
6	6645	35000	6627850
6	6645	35000	6627700
6	6810	36000	6624034
6	6810	36000	6624034
6	6810	36000	6623650
6	6985	37000	6619906
6	6985	37000	6619906
6	6985	37000	6619600
6	7160	38000	6615778
6	7160	38000	6615778
6	7160	38000	6615550
6	7325	39000	6611884
6	7325	39000	6611884
6	7325	39000	6611500
6	7504	40000	6607600
6	7504	40000	6607350
6	7509	40000	6607350
6	7509	40000	6607350
6	7509	40000	6607100
6	7744	41000	6304280
6	7744	41000	6304280
6	7744	41000	6297850
6	7909	42000	6007390
6	7909	42000	6007390
6	7909	42000	5988600
6	8084	43000	5691960
6	8084	43000	5691960
6	8084	43000	5679350
6	8259	44000	5376530
6	8259	44000	5376530
6	8259	44000	5370100
6	8424	45000	5061100
6	8424	45000	5060900
6	8429	45000	5060900
6	8429	45000	5060900
6	8429	45000	5060700
6	8604	46000	4994460
6	8604	46000	4994460
6	8604	46000	4991500
6	8779	47000	4923880
6	8779	47000	4923880
6	8779	47000	4922300
6	8935	48000	4857440
6	8935	48000	4857440
6	8935	48000	4853100
6	9092	49000	4786860
6	9092	49000	4786860
6	9092	49000	4783900
6	9252	50000	4714900
6	9252	50000	4714750
6	9256	50000	4714750
6	9256	50000	4714750
6	9256	50000	4714600
6	9440	51000	4710934
6	9440	51000	4710934
6	9440	51000	4710550
6	9597	52000	4706806
6	9597	52000	4706806
6	9597	52000	4706500
6	9754	53000	4702678
6	9754	53000	4702678
6	9754	53000	4702450
6	9902	54000	4698784
6	9902	54000	4698784
6	9902	54000	4698400
6	10059	55000	4694500
6	10059	55000	4694250
6	10063	55000	4694250
6	10063	55000	4694250
6	10063	55000	4694000
6	10220	56000	4391180
6	10220	56000	4391180
6	10220	56000	4384750
6	10363	57000	4094290
6	10363	57000	4094290
6	10363	57000	4075500
6	10502	58000	3778860
6	10502	58000	3778860
6	10502	58000	3766250
6	10641	59000	3463430
6	10641	59000	3463430
6	10641	59000	3457000
6	10774	60000	3148000
6	10774	60000	3147800
6	10777	60000	3147800
6	10777	60000	3147800
6	10777	60000	3147600
6	10932	61000	3081360
6	10932	61000	3081360
6	10932	61000	3078400
6	11053	62000	3010780
6	11053	62000	3010780
6	11053	62000	3009200
6	11167	63000	2944340
6	11167	63000	2944340
6	11167	63000	2940000
6	11288	64000	2873760
6	11288	64000	2873760
6	11288	64000	2870800
6	11409	65000	2801800
6	11409	65000	2801650
6	11411	65000	2801650
6	11411	65000	2801650
6	11411	65000	2801500
6	11525	66000	2797834
6	11525	66000	2797834
6	11525	66000	2797450
6	11646	67000	2793706
6	11646	67000	2793706
6	11646	67000	2793400
6	11767	68000	2789578
6	11767	68000	2789578
6	11767	68000	2789350
6	11881	69000	2785684
6	11881	69000	2785684
6	11881	69000	2785300
6	12003	70000	2781400
6	12003	70000	2781150
6	12005	70000	2781150
6	12005	70000	2781150
6	12005	70000	2780900
6	12132	71000	2478080
6	12132	71000	2478080
6	12132	71000	2471650
6	12246	72000	2181190
6	12246	72000	2181190
6	12246	72000	2162400
6	12367	73000	1865760
6	12367	73000	1865760
6	12367	73000	1853150
6	12473	74000	1550330
6	12473	74000	1550330
6	12473	74000	1543900
6	12570	75000	1234900
6	12570	75000	1234700
6	12571	75000	1234700
6	12571	75000	1234700
6	12571	75000	1234500
6	12674	76000	1168260
6	12674	76000	1168260
6	12674	76000	1165300
6	12777	77000	1097680
6	12777	77000	1097680
6	12777	77000	1096100
6	12874	78000	1031240
6	12874	78000	1031240
6	12874	78000	1026900
6	12977	79000	960660
6	12977	79000	960660
6	12977	79000	957700
6	13080	80000	888700
6	13080	80000	888550
6	13081	80000	888550
6	13081	80000	888550
6	13081	80000	888400
6	13178	81000	884734
6	13178	81000	884734
6	13178	81000	884350
6	13281	82000	880606
6	13281	82000	880606
6	13281	82000	880300
6	13384	83000	876478
6	13384	83000	876478
6	13384	83000	876250
6	13481	84000	872584
6	13481	84000	872584
6	13481	84000	872200
6	13584	85000	868300
6	13584	85000	868050
6	13585	85000	868050
6	13585	85000	868050
6	13585	85000	867800
6	13688	86000	564980
6	13688	86000	564980
6	13688	86000	558550
6	13785	87000	268090
6	13785	87000	268090
6	13785	87000	249300
10	0	0	0
10	0	0	0
10	1269	5000	1
10	2133	10000	2
10	3053	15000	0
10	3053	15000	0
10	3927	20000	1
10	4847	25000	2
10	5711	30000	0
10	5711	30000	0
10	6641	35000	1
10	7505	40000	2
10	8425	45000	0
10	8425	45000	0
10	9253	50000	1
10	10060	55000	2
10	10775	60000	0
10	10775	60000	0
10	11410	65000	1
10	12004	70000	2
11	0	0	3
11	31	0	3
11	31	0	3
11	579	1000	3
11	579	1000	3
11	579	1000	3
11	754	2000	3
11	754	2000	3
11	754	2000	3
11	919	3000	3
11	919	3000	3
11	919	3000	3
11	1094	4000	3
11	1094	4000	3
11	1094	4000	3
11	1269	5000	3
11	1269	5000	3
11	1274	5000	3
11	1274	5000	3
11	1274	5000	3
11	1439	6000	3
11	1439	6000	3
11	1439	6000	3
11	1614	7000	3
11	1614	7000	3
11	1614	7000	3
11	1789	8000	3
11	1789	8000	3
11	1789	8000	3
11	1954	9000	3
11	1954	9000	3
11	1954	9000	3
11	2128	10000	3
11	2128	10000	3
11	2133	10000	3
11	2133	10000	3
11	2138	10000	3
11	2138	10000	3
11	2138	10000	3
11	2182	10000	3
11	2182	10000	3
11	2373	11000	3
11	2373	11000	3
11	2373	11000	3
11	2538	12000	3
11	2538	12000	3
11	2538	12000	3
11	2713	13000	3
11	2713	13000	3
11	2713	13000	3
11	2888	14000	3
11	2888	14000	3
11	2888	14000	3
11	3053	15000	3
11	3053	15000	3
11	3058	15000	3
11	3058	15000	3
11	3058	15000	3
11	3233	16000	3
11	3233	16000	3
11	3233	16000	3
11	3408	17000	3
11	3408	17000	3
11	3408	17000	3
11	3573	18000	3
11	3573	18000	3
11	3573	18000	3
11	3748	19000	3
11	3748	19000	3
11	3748	19000	3
11	3922	20000	3
11	3922	20000	3
11	3927	20000	3
11	3927	20000	3
11	3932	20000	3
11	3932	20000	3
11	3932	20000	3
11	3976	20000	3
11	3976	20000	3
11	4157	21000	3
11	4157	21000	3
11	4157	21000	3
11	4332	22000	3
11	4332	22000	3
11	4332	22000	3
11	4507	23000	3
11	4507	23000	3
11	4507	23000	3
11	4672	24000	3
11	4672	24000	3
11	4672	24000	3
11	4847	25000	3
11	4847	25000	3
11	4852	25000	3
11	4852	25000	3
11	4852	25000	3
11	5027	26000	3
11	5027	26000	3
11	5027	26000	3
11	5192	27000	3
11	5192	27000	3
11	5192	27000	3
11	5367	28000	3
11	5367	28000	3
11	5367	28000	3
11	5542	29000	3
11	5542	29000	3
11	5542	29000	3
11	5706	30000	3
11	5706	30000	3
11	5711	30000	3
11	5711	30000	3
11	5716	30000	3
11	5716	30000	3
11	5716	30000	3
11	5760	30000	3
11	5760	30000	3
11	5951	31000	3
11	5951	31000	3
11	5951	31000	3
11	6126	32000	3
11	6126	32000	3
11	6126	32000	3
11	6291	33000	3
11	6291	33000	3
11	6291	33000	3
11	6466	34000	3
11	6466	34000	3
11	6466	34000	3
11	6641	35000	3
11	6641	35000	3
11	6646	35000	3
11	6646	35000	3
11	6646	35000	3
11	6811	36000	3
11	6811	36000	3
11	6811	36000	3
11	6986	37000	3
11	6986	37000	3
11	6986	37000	3
11	7161	38000	3
11	7161	38000	3
11	7161	38000	3
11	7326	39000	3
11	7326	39000	3
11	7326	39000	3
11	7500	40000	3
11	7500	40000	3
11	7505	40000	3
11	7505	40000	3
11	7510	40000	3
11	7510	40000	3
11	7510	40000	3
11	7554	40000	3
11	7554	40000	3
11	7745	41000	3
11	7745	41000	3
11	7745	41000	3
11	7910	42000	3
11	7910	42000	3
11	7910	42000	3
11	8085	43000	3
11	8085	43000	3
11	8085	43000	3
11	8260	44000	3
11	8260	44000	3
11	8260	44000	3
11	8425	45000	3
11	8425	45000	3
11	8430	45000	3
11	8430	45000	3
11	8430	45000	3
11	8605	46000	3
11	8605	46000	3
11	8605	46000	3
11	8780	47000	3
11	8780	47000	3
11	8780	47000	3
11	8936	48000	3
11	8936	48000	3
11	8936	48000	3
11	9093	49000	3
11	9093	49000	3
11	9093	49000	3
11	9249	50000	3
11	9249	50000	3
11	9253	50000	3
11	9253	50000	3
11	9257	50000	3
11	9257	50000	3
11	9257	50000	3
11	9284	50000	3
11	9284	50000	3
11	9441	51000	3
11	9441	51000	3
11	9441	51000	3
11	9598	52000	3
11	9598	52000	3
11	9598	52000	3
11	9755	53000	3
11	9755	53000	3
11	9755	53000	3
11	9903	54000	3
11	9903	54000	3
11	9903	54000	3
11	10060	55000	3
11	10060	55000	3
11	10064	55000	3
11	10064	55000	3
11	10064	55000	3
11	10221	56000	3
11	10221	56000	3
11	10221	56000	3
11	10364	57000	3
11	10364	57000	3
11	10364	57000	3
11	10503	58000	3
11	10503	58000	3
11	10503	58000	3
11	10642	59000	3
11	10642	59000	3
11	10642	59000	3
11	10772	60000	3
11	10772	60000	3
11	10775	60000	3
11	10775	60000	3
11	10778	60000	3
11	10778	60000	3
11	10778	60000	3
11	10792	60000	3
11	10792	60000	3
11	10933	61000	3
11	10933	61000	3
11	10933	61000	3
11	11054	62000	3
11	11054	62000	3
11	11054	62000	3
11	11168	63000	3
11	11168	63000	3
11	11168	63000	3
11	11289	64000	3
11	11289	64000	3
11	11289	64000	3
11	11410	65000	3
11	11410	65000	3
11	11412	65000	3
11	11412	65000	3
11	11412	65000	3
11	11526	66000	3
11	11526	66000	3
11	11526	66000	3
11	11647	67000	3
11	11647	67000	3
11	11647	67000	3
11	11768	68000	3
11	11768	68000	3
11	11768	68000	3
11	11882	69000	3
11	11882	69000	3
11	11882	69000	3
11	12002	70000	3
11	12002	70000	3
11	12004	70000	3
11	12004	70000	3
11	12006	70000	3
11	12006	70000	3
11	12006	70000	3
11	12011	70000	3
11	12011	70000	3
11	12133	71000	3
11	12133	71000	3
11	12133	71000	3
11	12247	72000	3
11	12247	72000	3
11	12247	72000	3
11	12368	73000	3
11	12368	73000	3
11	12368	73000	3
12	0	0	1
12	31	0	0.9999537037037
12	31	0	0.99993518518519
12	579	1000	0.99059259259259
12	579	1000	0.99059259259259
12	579	1000	0.99018518518519
12	754	2000	0.98065740740741
12	754	2000	0.98065740740741
12	754	2000	0.98044444444444
12	919	3000	0.97130555555556
12	919	3000	0.97130555555556
12	919	3000	0.9707037037037
12	1094	4000	0.96137037037037
12	1094	4000	0.96137037037037
12	1094	4000	0.96096296296296
12	1269	5000	0.95124074074074
12	1269	5000	0.95122685185185
12	1274	5000	0.95122685185185
12	1274	5000	0.95122685185185
12	1274	5000	0.95121296296296
12	1439	6000	0.95056018518519
12	1439	6000	0.95056018518519
12	1439	6000	0.95050462962963
12	1614	7000	0.94983796296296
12	1614	7000	0.94983796296296
12	1614	7000	0.9497962962963
12	1789	8000	0.94911574074074
12	1789	8000	0.94911574074074
12	1789	8000	0.94908796296296
12	1954	9000	0.94843518518519
12	1954	9000	0.94843518518519
12	1954	9000	0.94837962962963
12	2128	10000	0.94771296296296
12	2128	10000	0.9476712962963
12	2133	10000	0.9476712962963
12	2133	10000	0.94764814814815
12	2138	10000	0.94764814814815
12	2138	10000	0.94764814814815
12	2138	10000	0.947625
12	2182	10000	0.94756944444444
12	2182	10000	0.9475462962963
12	2373	11000	0.91623148148148
12	2373	11000	0.91623148148148
12	2373	11000	0.91556944444444
12	2538	12000	0.88554166666667
12	2538	12000	0.88554166666667
12	2538	12000	0.88360185185185
12	2713	13000	0.85293518518519
12	2713	13000	0.85293518518519
12	2713	13000	0.85163425925926
12	2888	14000	0.8203287037037
12	2888	14000	0.8203287037037
12	2888	14000	0.81966666666667
12	3053	15000	0.78772222222222
12	3053	15000	0.7877037037037
12	3058	15000	0.7877037037037
12	3058	15000	0.7877037037037
12	3058	15000	0.78768518518519
12	3233	16000	0.77835185185185
12	3233	16000	0.77835185185185
12	3233	16000	0.77794444444444
12	3408	17000	0.76841666666667
12	3408	17000	0.76841666666667
12	3408	17000	0.7682037037037
12	3573	18000	0.75906481481481
12	3573	18000	0.75906481481481
12	3573	18000	0.75846296296296
12	3748	19000	0.74912962962963
12	3748	19000	0.74912962962963
12	3748	19000	0.74872222222222
12	3922	20000	0.73919444444444
12	3922	20000	0.73898148148148
12	3927	20000	0.73898148148148
12	3927	20000	0.73896759259259
12	3932	20000	0.73896759259259
12	3932	20000	0.73896759259259
12	3932	20000	0.7389537037037
12	3976	20000	0.73889814814815
12	3976	20000	0.73888425925926
12	4157	21000	0.73822222222222
12	4157	21000	0.73822222222222
12	4157	21000	0.73816666666667
12	4332	22000	0.7375
12	4332	22000	0.7375
12	4332	22000	0.73745833333333
12	4507	23000	0.73677777777778
12	4507	23000	0.73677777777778
12	4507	23000	0.73675
12	4672	24000	0.73609722222222
12	4672	24000	0.73609722222222
12	4672	24000	0.73604166666667
12	4847	25000	0.73534722222222
12	4847	25000	0.73532407407407
12	4852	25000	0.73532407407407
12	4852	25000	0.73532407407407
12	4852	25000	0.73530092592593
12	5027	26000	0.70399537037037
12	5027	26000	0.70399537037037
12	5027	26000	0.70333333333333
12	5192	27000	0.67330555555556
12	5192	27000	0.67330555555556
12	5192	27000	0.67136574074074
12	5367	28000	0.64069907407407
12	5367	28000	0.64069907407407
12	5367	28000	0.63939814814815
12	5542	29000	0.60809259259259
12	5542	29000	0.60809259259259
12	5542	29000	0.60743055555556
12	5706	30000	0.57740277777778
12	5706	30000	0.57546296296296
12	5711	30000	0.57546296296296
12	5711	30000	0.57544444444444
12	5716	30000	0.57544444444444
12	5716	30000	0.57544444444444
12	5716	30000	0.57542592592593
12	5760	30000	0.57537037037037
12	5760	30000	0.57535185185185
12	5951	31000	0.56600925925926
12	5951	31000	0.56600925925926