version 2
run General-0-20150721-16:40:49-1654
attr configname General
attr datetime 20150721-16:40:49
attr experiment General
attr inifile omnetpp.ini
attr iterationvars ""
attr iterationvars2 $repetition=0
attr measurement ""
attr network BasicExample
attr processid 1654
attr repetition 0
attr replication #0
attr resultdir results
attr runnumber 0
attr seedset 0

vector 3  BasicExample.SensorNode[0].Processor  "power mode"  ETV
vector 4  BasicExample.SensorNode[0].Processor  "Sensor Modules Status"  ETV
vector 5  BasicExample.SensorNode[0].Processor  Voltage  ETV
vector 6  BasicExample.SensorNode[0].Processor  residualRelative  ETV
vector 7  BasicExample.SensorNode[0].Processor  residualAbs  ETV
vector 11  BasicExample.SensorNode[1].Processor  "power mode"  ETV
vector 12  BasicExample.SensorNode[1].Processor  "Sensor Modules Status"  ETV
vector 13  BasicExample.SensorNode[1].Processor  Voltage  ETV
vector 14  BasicExample.SensorNode[1].Processor  residualRelative  ETV
vector 15  BasicExample.SensorNode[1].Processor  residualAbs  ETV
vector 19  BasicExample.TNode[0].Processor  "power mode"  ETV
vector 20  BasicExample.TNode[0].Processor  "Sensor Modules Status"  ETV
vector 21  BasicExample.TNode[0].Processor  Voltage  ETV
vector 22  BasicExample.TNode[0].Processor  residualRelative  ETV
vector 23  BasicExample.TNode[0].Processor  residualAbs  ETV
vector 27  BasicExample.TNode[1].Processor  "power mode"  ETV
vector 28  BasicExample.TNode[1].Processor  "Sensor Modules Status"  ETV
vector 29  BasicExample.TNode[1].Processor  Voltage  ETV
vector 30  BasicExample.TNode[1].Processor  residualRelative  ETV
vector 31  BasicExample.TNode[1].Processor  residualAbs  ETV
vector 35  BasicExample.TPNode[0].Processor  "power mode"  ETV
vector 36  BasicExample.TPNode[0].Processor  "Sensor Modules Status"  ETV
vector 37  BasicExample.TPNode[0].Processor  Voltage  ETV
vector 38  BasicExample.TPNode[0].Processor  residualRelative  ETV
vector 39  BasicExample.TPNode[0].Processor  residualAbs  ETV
vector 43  BasicExample.TPNode[1].Processor  "power mode"  ETV
vector 44  BasicExample.TPNode[1].Processor  "Sensor Modules Status"  ETV
vector 45  BasicExample.TPNode[1].Processor  Voltage  ETV
vector 46  BasicExample.TPNode[1].Processor  residualRelative  ETV
vector 47  BasicExample.TPNode[1].Processor  residualAbs  ETV
vector 51  BasicExample.PHLNode[0].Processor  "power mode"  ETV
vector 52  BasicExample.PHLNode[0].Processor  "Sensor Modules Status"  ETV
vector 53  BasicExample.PHLNode[0].Processor  Voltage  ETV
vector 54  BasicExample.PHLNode[0].Processor  residualRelative  ETV
vector 55  BasicExample.PHLNode[0].Processor  residualAbs  ETV
vector 59  BasicExample.PHLNode[1].Processor  "power mode"  ETV
vector 60  BasicExample.PHLNode[1].Processor  "Sensor Modules Status"  ETV
vector 61  BasicExample.PHLNode[1].Processor  Voltage  ETV
vector 62  BasicExample.PHLNode[1].Processor  residualRelative  ETV
vector 63  BasicExample.PHLNode[1].Processor  residualAbs  ETV
vector 67  BasicExample.TPHLNode[0].Processor  "power mode"  ETV
vector 68  BasicExample.TPHLNode[0].Processor  "Sensor Modules Status"  ETV
vector 69  BasicExample.TPHLNode[0].Processor  Voltage  ETV
vector 70  BasicExample.TPHLNode[0].Processor  residualRelative  ETV
vector 71  BasicExample.TPHLNode[0].Processor  residualAbs  ETV
vector 75  BasicExample.TPHLNode[1].Processor  "power mode"  ETV
vector 76  BasicExample.TPHLNode[1].Processor  "Sensor Modules Status"  ETV
vector 77  BasicExample.TPHLNode[1].Processor  Voltage  ETV
vector 78  BasicExample.TPHLNode[1].Processor  residualRelative  ETV
vector 79  BasicExample.TPHLNode[1].Processor  residualAbs  ETV
vector 80  BasicExample.SensorNode[0].Memory  "Energy Consumptions"  ETV
vector 81  BasicExample.SensorNode[0].Memory  "Current use over time"  ETV
vector 82  BasicExample.SensorNode[1].Memory  "Energy Consumptions"  ETV
vector 83  BasicExample.SensorNode[1].Memory  "Current use over time"  ETV
vector 84  BasicExample.TNode[0].TemperatureSensor.SensingUnit  "Energy Consumptions"  ETV
vector 85  BasicExample.TNode[0].TemperatureSensor.SensingUnit  "Current use over time"  ETV
vector 86  BasicExample.TNode[0].TemperatureSensor.SignalConditioner  "Energy Consumptions"  ETV
vector 87  BasicExample.TNode[0].TemperatureSensor.SignalConditioner  "Current use over time"  ETV
vector 88  BasicExample.TNode[0].TemperatureSensor.SignalConverter  "Energy Consumptions"  ETV
vector 89  BasicExample.TNode[0].TemperatureSensor.SignalConverter  "Current use over time"  ETV
vector 90  BasicExample.TNode[0].TemperatureSensor.Transducer  "Energy Consumptions"  ETV
vector 91  BasicExample.TNode[0].TemperatureSensor.Transducer  "Current use over time"  ETV
vector 92  BasicExample.TNode[0].Memory  "Energy Consumptions"  ETV
vector 93  BasicExample.TNode[0].Memory  "Current use over time"  ETV
vector 94  BasicExample.TNode[1].TemperatureSensor.SensingUnit  "Energy Consumptions"  ETV
vector 95  BasicExample.TNode[1].TemperatureSensor.SensingUnit  "Current use over time"  ETV
vector 96  BasicExample.TNode[1].TemperatureSensor.SignalConditioner  "Energy Consumptions"  ETV
vector 97  BasicExample.TNode[1].TemperatureSensor.SignalConditioner  "Current use over time"  ETV
vector 98  BasicExample.TNode[1].TemperatureSensor.SignalConverter  "Energy Consumptions"  ETV
vector 99  BasicExample.TNode[1].TemperatureSensor.SignalConverter  "Current use over time"  ETV
vector 100  BasicExample.TNode[1].TemperatureSensor.Transducer  "Energy Consumptions"  ETV
vector 101  BasicExample.TNode[1].TemperatureSensor.Transducer  "Current use over time"  ETV
vector 102  BasicExample.TNode[1].Memory  "Energy Consumptions"  ETV
vector 103  BasicExample.TNode[1].Memory  "Current use over time"  ETV
vector 104  BasicExample.TPNode[0].TemperatureSensor.SensingUnit  "Energy Consumptions"  ETV
vector 105  BasicExample.TPNode[0].TemperatureSensor.SensingUnit  "Current use over time"  ETV
vector 106  BasicExample.TPNode[0].TemperatureSensor.SignalConditioner  "Energy Consumptions"  ETV
vector 107  BasicExample.TPNode[0].TemperatureSensor.SignalConditioner  "Current use over time"  ETV
vector 108  BasicExample.TPNode[0].TemperatureSensor.SignalConverter  "Energy Consumptions"  ETV
vector 109  BasicExample.TPNode[0].TemperatureSensor.SignalConverter  "Current use over time"  ETV
vector 110  BasicExample.TPNode[0].TemperatureSensor.Transducer  "Energy Consumptions"  ETV
vector 111  BasicExample.TPNode[0].TemperatureSensor.Transducer  "Current use over time"  ETV
vector 112  BasicExample.TPNode[0].PressureSensor.SensingUnit  "Energy Consumptions"  ETV
vector 113  BasicExample.TPNode[0].PressureSensor.SensingUnit  "Current use over time"  ETV
vector 114  BasicExample.TPNode[0].PressureSensor.SignalConditioner  "Energy Consumptions"  ETV
vector 115  BasicExample.TPNode[0].PressureSensor.SignalConditioner  "Current use over time"  ETV
vector 116  BasicExample.TPNode[0].PressureSensor.SignalConverter  "Energy Consumptions"  ETV
vector 117  BasicExample.TPNode[0].PressureSensor.SignalConverter  "Current use over time"  ETV
vector 118  BasicExample.TPNode[0].PressureSensor.Transducer  "Energy Consumptions"  ETV
vector 119  BasicExample.TPNode[0].PressureSensor.Transducer  "Current use over time"  ETV
vector 120  BasicExample.TPNode[0].Memory  "Energy Consumptions"  ETV
vector 121  BasicExample.TPNode[0].Memory  "Current use over time"  ETV
vector 122  BasicExample.TPNode[1].TemperatureSensor.SensingUnit  "Energy Consumptions"  ETV
vector 123  BasicExample.TPNode[1].TemperatureSensor.SensingUnit  "Current use over time"  ETV
vector 124  BasicExample.TPNode[1].TemperatureSensor.SignalConditioner  "Energy Consumptions"  ETV
vector 125  BasicExample.TPNode[1].TemperatureSensor.SignalConditioner  "Current use over time"  ETV
vector 126  BasicExample.TPNode[1].TemperatureSensor.SignalConverter  "Energy Consumptions"  ETV
vector 127  BasicExample.TPNode[1].TemperatureSensor.SignalConverter  "Current use over time"  ETV
vector 128  BasicExample.TPNode[1].TemperatureSensor.Transducer  "Energy Consumptions"  ETV
vector 129  BasicExample.TPNode[1].TemperatureSensor.Transducer  "Current use over time"  ETV
vector 130  BasicExample.TPNode[1].PressureSensor.SensingUnit  "Energy Consumptions"  ETV
vector 131  BasicExample.TPNode[1].PressureSensor.SensingUnit  "Current use over time"  ETV
vector 132  BasicExample.TPNode[1].PressureSensor.SignalConditioner  "Energy Consumptions"  ETV
vector 133  BasicExample.TPNode[1].PressureSensor.SignalConditioner  "Current use over time"  ETV
vector 134  BasicExample.TPNode[1].PressureSensor.SignalConverter  "Energy Consumptions"  ETV
vector 135  BasicExample.TPNode[1].PressureSensor.SignalConverter  "Current use over time"  ETV
vector 136  BasicExample.TPNode[1].PressureSensor.Transducer  "Energy Consumptions"  ETV
vector 137  BasicExample.TPNode[1].PressureSensor.Transducer  "Current use over time"  ETV
vector 138  BasicExample.TPNode[1].Memory  "Energy Consumptions"  ETV
vector 139  BasicExample.TPNode[1].Memory  "Current use over time"  ETV
vector 140  BasicExample.PHLNode[0].HumiditySensor.SensingUnit  "Energy Consumptions"  ETV
vector 141  BasicExample.PHLNode[0].HumiditySensor.SensingUnit  "Current use over time"  ETV
vector 142  BasicExample.PHLNode[0].HumiditySensor.SignalConditioner  "Energy Consumptions"  ETV
vector 143  BasicExample.PHLNode[0].HumiditySensor.SignalConditioner  "Current use over time"  ETV
vector 144  BasicExample.PHLNode[0].HumiditySensor.SignalConverter  "Energy Consumptions"  ETV
vector 145  BasicExample.PHLNode[0].HumiditySensor.SignalConverter  "Current use over time"  ETV
vector 146  BasicExample.PHLNode[0].HumiditySensor.Transducer  "Energy Consumptions"  ETV
vector 147  BasicExample.PHLNode[0].HumiditySensor.Transducer  "Current use over time"  ETV
vector 148  BasicExample.PHLNode[0].PressureSensor.SensingUnit  "Energy Consumptions"  ETV
vector 149  BasicExample.PHLNode[0].PressureSensor.SensingUnit  "Current use over time"  ETV
vector 150  BasicExample.PHLNode[0].PressureSensor.SignalConditioner  "Energy Consumptions"  ETV
vector 151  BasicExample.PHLNode[0].PressureSensor.SignalConditioner  "Current use over time"  ETV
vector 152  BasicExample.PHLNode[0].PressureSensor.SignalConverter  "Energy Consumptions"  ETV
vector 153  BasicExample.PHLNode[0].PressureSensor.SignalConverter  "Current use over time"  ETV
vector 154  BasicExample.PHLNode[0].PressureSensor.Transducer  "Energy Consumptions"  ETV
vector 155  BasicExample.PHLNode[0].PressureSensor.Transducer  "Current use over time"  ETV
vector 156  BasicExample.PHLNode[0].LightSensor.SensingUnit  "Energy Consumptions"  ETV
vector 157  BasicExample.PHLNode[0].LightSensor.SensingUnit  "Current use over time"  ETV
vector 158  BasicExample.PHLNode[0].LightSensor.SignalConditioner  "Energy Consumptions"  ETV
vector 159  BasicExample.PHLNode[0].LightSensor.SignalConditioner  "Current use over time"  ETV
vector 160  BasicExample.PHLNode[0].LightSensor.SignalConverter  "Energy Consumptions"  ETV
vector 161  BasicExample.PHLNode[0].LightSensor.SignalConverter  "Current use over time"  ETV
vector 162  BasicExample.PHLNode[0].LightSensor.Transducer  "Energy Consumptions"  ETV
vector 163  BasicExample.PHLNode[0].LightSensor.Transducer  "Current use over time"  ETV
vector 164  BasicExample.PHLNode[0].Memory  "Energy Consumptions"  ETV
vector 165  BasicExample.PHLNode[0].Memory  "Current use over time"  ETV
vector 166  BasicExample.PHLNode[1].HumiditySensor.SensingUnit  "Energy Consumptions"  ETV
vector 167  BasicExample.PHLNode[1].HumiditySensor.SensingUnit  "Current use over time"  ETV
vector 168  BasicExample.PHLNode[1].HumiditySensor.SignalConditioner  "Energy Consumptions"  ETV
vector 169  BasicExample.PHLNode[1].HumiditySensor.SignalConditioner  "Current use over time"  ETV
vector 170  BasicExample.PHLNode[1].HumiditySensor.SignalConverter  "Energy Consumptions"  ETV
vector 171  BasicExample.PHLNode[1].HumiditySensor.SignalConverter  "Current use over time"  ETV
vector 172  BasicExample.PHLNode[1].HumiditySensor.Transducer  "Energy Consumptions"  ETV
vector 173  BasicExample.PHLNode[1].HumiditySensor.Transducer  "Current use over time"  ETV
vector 174  BasicExample.PHLNode[1].PressureSensor.SensingUnit  "Energy Consumptions"  ETV
vector 175  BasicExample.PHLNode[1].PressureSensor.SensingUnit  "Current use over time"  ETV
vector 176  BasicExample.PHLNode[1].PressureSensor.SignalConditioner  "Energy Consumptions"  ETV
vector 177  BasicExample.PHLNode[1].PressureSensor.SignalConditioner  "Current use over time"  ETV
vector 178  BasicExample.PHLNode[1].PressureSensor.SignalConverter  "Energy Consumptions"  ETV
vector 179  BasicExample.PHLNode[1].PressureSensor.SignalConverter  "Current use over time"  ETV
vector 180  BasicExample.PHLNode[1].PressureSensor.Transducer  "Energy Consumptions"  ETV
vector 181  BasicExample.PHLNode[1].PressureSensor.Transducer  "Current use over time"  ETV
vector 182  BasicExample.PHLNode[1].LightSensor.SensingUnit  "Energy Consumptions"  ETV
vector 183  BasicExample.PHLNode[1].LightSensor.SensingUnit  "Current use over time"  ETV
vector 184  BasicExample.PHLNode[1].LightSensor.SignalConditioner  "Energy Consumptions"  ETV
vector 185  BasicExample.PHLNode[1].LightSensor.SignalConditioner  "Current use over time"  ETV
vector 186  BasicExample.PHLNode[1].LightSensor.SignalConverter  "Energy Consumptions"  ETV
vector 187  BasicExample.PHLNode[1].LightSensor.SignalConverter  "Current use over time"  ETV
vector 188  BasicExample.PHLNode[1].LightSensor.Transducer  "Energy Consumptions"  ETV
vector 189  BasicExample.PHLNode[1].LightSensor.Transducer  "Current use over time"  ETV
vector 190  BasicExample.PHLNode[1].Memory  "Energy Consumptions"  ETV
vector 191  BasicExample.PHLNode[1].Memory  "Current use over time"  ETV
vector 192  BasicExample.TPHLNode[0].TemperatureSensor.SensingUnit  "Energy Consumptions"  ETV
vector 193  BasicExample.TPHLNode[0].TemperatureSensor.SensingUnit  "Current use over time"  ETV
vector 194  BasicExample.TPHLNode[0].TemperatureSensor.SignalConditioner  "Energy Consumptions"  ETV
vector 195  BasicExample.TPHLNode[0].TemperatureSensor.SignalConditioner  "Current use over time"  ETV
vector 196  BasicExample.TPHLNode[0].TemperatureSensor.SignalConverter  "Energy Consumptions"  ETV
vector 197  BasicExample.TPHLNode[0].TemperatureSensor.SignalConverter  "Current use over time"  ETV
vector 198  BasicExample.TPHLNode[0].TemperatureSensor.Transducer  "Energy Consumptions"  ETV
vector 199  BasicExample.TPHLNode[0].TemperatureSensor.Transducer  "Current use over time"  ETV
vector 200  BasicExample.TPHLNode[0].HumiditySensor.SensingUnit  "Energy Consumptions"  ETV
vector 201  BasicExample.TPHLNode[0].HumiditySensor.SensingUnit  "Current use over time"  ETV
vector 202  BasicExample.TPHLNode[0].HumiditySensor.SignalConditioner  "Energy Consumptions"  ETV
vector 203  BasicExample.TPHLNode[0].HumiditySensor.SignalConditioner  "Current use over time"  ETV
vector 204  BasicExample.TPHLNode[0].HumiditySensor.SignalConverter  "Energy Consumptions"  ETV
vector 205  BasicExample.TPHLNode[0].HumiditySensor.SignalConverter  "Current use over time"  ETV
vector 206  BasicExample.TPHLNode[0].HumiditySensor.Transducer  "Energy Consumptions"  ETV
vector 207  BasicExample.TPHLNode[0].HumiditySensor.Transducer  "Current use over time"  ETV
vector 208  BasicExample.TPHLNode[0].PressureSensor.SensingUnit  "Energy Consumptions"  ETV
vector 209  BasicExample.TPHLNode[0].PressureSensor.SensingUnit  "Current use over time"  ETV
vector 210  BasicExample.TPHLNode[0].PressureSensor.SignalConditioner  "Energy Consumptions"  ETV
vector 211  BasicExample.TPHLNode[0].PressureSensor.SignalConditioner  "Current use over time"  ETV
vector 212  BasicExample.TPHLNode[0].PressureSensor.SignalConverter  "Energy Consumptions"  ETV
vector 213  BasicExample.TPHLNode[0].PressureSensor.SignalConverter  "Current use over time"  ETV
vector 214  BasicExample.TPHLNode[0].PressureSensor.Transducer  "Energy Consumptions"  ETV
vector 215  BasicExample.TPHLNode[0].PressureSensor.Transducer  "Current use over time"  ETV
vector 216  BasicExample.TPHLNode[0].LightSensor.SensingUnit  "Energy Consumptions"  ETV
vector 217  BasicExample.TPHLNode[0].LightSensor.SensingUnit  "Current use over time"  ETV
vector 218  BasicExample.TPHLNode[0].LightSensor.SignalConditioner  "Energy Consumptions"  ETV
vector 219  BasicExample.TPHLNode[0].LightSensor.SignalConditioner  "Current use over time"  ETV
vector 220  BasicExample.TPHLNode[0].LightSensor.SignalConverter  "Energy Consumptions"  ETV
vector 221  BasicExample.TPHLNode[0].LightSensor.SignalConverter  "Current use over time"  ETV
vector 222  BasicExample.TPHLNode[0].LightSensor.Transducer  "Energy Consumptions"  ETV
vector 223  BasicExample.TPHLNode[0].LightSensor.Transducer  "Current use over time"  ETV
vector 224  BasicExample.TPHLNode[0].Memory  "Energy Consumptions"  ETV
vector 225  BasicExample.TPHLNode[0].Memory  "Current use over time"  ETV
vector 226  BasicExample.TPHLNode[1].TemperatureSensor.SensingUnit  "Energy Consumptions"  ETV
vector 227  BasicExample.TPHLNode[1].TemperatureSensor.SensingUnit  "Current use over time"  ETV
vector 228  BasicExample.TPHLNode[1].TemperatureSensor.SignalConditioner  "Energy Consumptions"  ETV
vector 229  BasicExample.TPHLNode[1].TemperatureSensor.SignalConditioner  "Current use over time"  ETV
vector 230  BasicExample.TPHLNode[1].TemperatureSensor.SignalConverter  "Energy Consumptions"  ETV
vector 231  BasicExample.TPHLNode[1].TemperatureSensor.SignalConverter  "Current use over time"  ETV
vector 232  BasicExample.TPHLNode[1].TemperatureSensor.Transducer  "Energy Consumptions"  ETV
vector 233  BasicExample.TPHLNode[1].TemperatureSensor.Transducer  "Current use over time"  ETV
vector 234  BasicExample.TPHLNode[1].HumiditySensor.SensingUnit  "Energy Consumptions"  ETV
vector 235  BasicExample.TPHLNode[1].HumiditySensor.SensingUnit  "Current use over time"  ETV
vector 236  BasicExample.TPHLNode[1].HumiditySensor.SignalConditioner  "Energy Consumptions"  ETV
vector 237  BasicExample.TPHLNode[1].HumiditySensor.SignalConditioner  "Current use over time"  ETV
vector 238  BasicExample.TPHLNode[1].HumiditySensor.SignalConverter  "Energy Consumptions"  ETV
vector 239  BasicExample.TPHLNode[1].HumiditySensor.SignalConverter  "Current use over time"  ETV
vector 240  BasicExample.TPHLNode[1].HumiditySensor.Transducer  "Energy Consumptions"  ETV
vector 241  BasicExample.TPHLNode[1].HumiditySensor.Transducer  "Current use over time"  ETV
vector 242  BasicExample.TPHLNode[1].PressureSensor.SensingUnit  "Energy Consumptions"  ETV
vector 243  BasicExample.TPHLNode[1].PressureSensor.SensingUnit  "Current use over time"  ETV
vector 244  BasicExample.TPHLNode[1].PressureSensor.SignalConditioner  "Energy Consumptions"  ETV
vector 245  BasicExample.TPHLNode[1].PressureSensor.SignalConditioner  "Current use over time"  ETV
vector 246  BasicExample.TPHLNode[1].PressureSensor.SignalConverter  "Energy Consumptions"  ETV
vector 247  BasicExample.TPHLNode[1].PressureSensor.SignalConverter  "Current use over time"  ETV
vector 248  BasicExample.TPHLNode[1].PressureSensor.Transducer  "Energy Consumptions"  ETV
vector 249  BasicExample.TPHLNode[1].PressureSensor.Transducer  "Current use over time"  ETV
vector 250  BasicExample.TPHLNode[1].LightSensor.SensingUnit  "Energy Consumptions"  ETV
vector 251  BasicExample.TPHLNode[1].LightSensor.SensingUnit  "Current use over time"  ETV
vector 252  BasicExample.TPHLNode[1].LightSensor.SignalConditioner  "Energy Consumptions"  ETV
vector 253  BasicExample.TPHLNode[1].LightSensor.SignalConditioner  "Current use over time"  ETV
vector 254  BasicExample.TPHLNode[1].LightSensor.SignalConverter  "Energy Consumptions"  ETV
vector 255  BasicExample.TPHLNode[1].LightSensor.SignalConverter  "Current use over time"  ETV
vector 256  BasicExample.TPHLNode[1].LightSensor.Transducer  "Energy Consumptions"  ETV
vector 257  BasicExample.TPHLNode[1].LightSensor.Transducer  "Current use over time"  ETV
vector 258  BasicExample.TPHLNode[1].Memory  "Energy Consumptions"  ETV
vector 259  BasicExample.TPHLNode[1].Memory  "Current use over time"  ETV
3	0	0	0
3	0	0	0
3	5178	5000	1
3	6906	10000	2
3	8746	15000	0
3	8746	15000	0
3	10494	20000	1
3	12334	25000	2
3	14062	30000	0
3	14062	30000	0
3	15922	35000	1
3	17650	40000	2
3	19490	45000	0
3	19490	45000	0
3	21146	50000	1
3	22760	55000	2
3	24190	60000	0
3	24190	60000	0
3	25460	65000	1
3	26648	70000	2
3	27782	75000	0
3	27782	75000	0
3	28802	80000	1
3	29810	85000	2
4	0	0	0
5	0	0	3
5	3798	1000	3
5	3798	1000	3
5	3798	1000	3
5	4148	2000	3
5	4148	2000	3
5	4148	2000	3
5	4478	3000	3
5	4478	3000	3
5	4478	3000	3
5	4828	4000	3
5	4828	4000	3
5	4828	4000	3
5	5178	5000	3
5	5178	5000	3
5	5188	5000	3
5	5188	5000	3
5	5188	5000	3
5	5518	6000	3
5	5518	6000	3
5	5518	6000	3
5	5868	7000	3
5	5868	7000	3
5	5868	7000	3
5	6218	8000	3
5	6218	8000	3
5	6218	8000	3
5	6548	9000	3
5	6548	9000	3
5	6548	9000	3
5	6906	10000	3
5	6906	10000	3
5	6916	10000	3
5	6916	10000	3
5	6916	10000	3
5	7386	11000	3
5	7386	11000	3
5	7386	11000	3
5	7716	12000	3
5	7716	12000	3
5	7716	12000	3
5	8066	13000	3
5	8066	13000	3
5	8066	13000	3
5	8416	14000	3
5	8416	14000	3
5	8416	14000	3
5	8746	15000	3
5	8746	15000	3
5	8756	15000	3
5	8756	15000	3
5	8756	15000	3
5	9106	16000	3
5	9106	16000	3
5	9106	16000	3
5	9456	17000	3
5	9456	17000	3
5	9456	17000	3
5	9786	18000	3
5	9786	18000	3
5	9786	18000	3
5	10136	19000	3
5	10136	19000	3
5	10136	19000	3
5	10494	20000	3
5	10494	20000	3
5	10504	20000	3
5	10504	20000	3
5	10504	20000	3
5	10954	21000	3
5	10954	21000	3
5	10954	21000	3
5	11304	22000	3
5	11304	22000	3
5	11304	22000	3
5	11654	23000	3
5	11654	23000	3
5	11654	23000	3
5	11984	24000	3
5	11984	24000	3
5	11984	24000	3
5	12334	25000	3
5	12334	25000	3
5	12344	25000	3
5	12344	25000	3
5	12344	25000	3
5	12694	26000	3
5	12694	26000	3
5	12694	26000	3
5	13024	27000	3
5	13024	27000	3
5	13024	27000	3
5	13374	28000	3
5	13374	28000	3
5	13374	28000	3
5	13724	29000	3
5	13724	29000	3
5	13724	29000	3
5	14062	30000	3
5	14062	30000	3
5	14072	30000	3
5	14072	30000	3
5	14072	30000	3
5	14542	31000	3
5	14542	31000	3
5	14542	31000	3
5	14892	32000	3
5	14892	32000	3
5	14892	32000	3
5	15222	33000	3
5	15222	33000	3
5	15222	33000	3
5	15572	34000	3
5	15572	34000	3
5	15572	34000	3
5	15922	35000	3
5	15922	35000	3
5	15932	35000	3
5	15932	35000	3
5	15932	35000	3
5	16262	36000	3
5	16262	36000	3
5	16262	36000	3
5	16612	37000	3
5	16612	37000	3
5	16612	37000	3
5	16962	38000	3
5	16962	38000	3
5	16962	38000	3
5	17292	39000	3
5	17292	39000	3
5	17292	39000	3
5	17650	40000	3
5	17650	40000	3
5	17660	40000	3
5	17660	40000	3
5	17660	40000	3
5	18130	41000	3
5	18130	41000	3
5	18130	41000	3
5	18460	42000	3
5	18460	42000	3
5	18460	42000	3
5	18810	43000	3
5	18810	43000	3
5	18810	43000	3
5	19160	44000	3
5	19160	44000	3
5	19160	44000	3
5	19490	45000	3
5	19490	45000	3
5	19500	45000	3
5	19500	45000	3
5	19500	45000	3
5	19850	46000	3
5	19850	46000	3
5	19850	46000	3
5	20200	47000	3
5	20200	47000	3
5	20200	47000	3
5	20512	48000	3
5	20512	48000	3
5	20512	48000	3
5	20826	49000	3
5	20826	49000	3
5	20826	49000	3
5	21146	50000	3
5	21146	50000	3
5	21154	50000	3
5	21154	50000	3
5	21154	50000	3
5	21522	51000	3
5	21522	51000	3
5	21522	51000	3
5	21836	52000	3
5	21836	52000	3
5	21836	52000	3
5	22150	53000	3
5	22150	53000	3
5	22150	53000	3
5	22446	54000	3
5	22446	54000	3
5	22446	54000	3
5	22760	55000	3
5	22760	55000	3
5	22768	55000	3
5	22768	55000	3
5	22768	55000	3
5	23082	56000	3
5	23082	56000	3
5	23082	56000	3
5	23368	57000	3
5	23368	57000	3
5	23368	57000	3
5	23646	58000	3
5	23646	58000	3
5	23646	58000	3
5	23924	59000	3
5	23924	59000	3
5	23924	59000	3
5	24190	60000	3
5	24190	60000	3
5	24196	60000	3
5	24196	60000	3
5	24196	60000	3
5	24506	61000	3
5	24506	61000	3
5	24506	61000	3
5	24748	62000	3
5	24748	62000	3
5	24748	62000	3
5	24976	63000	3
5	24976	63000	3
5	24976	63000	3
5	25218	64000	3
5	25218	64000	3
5	25218	64000	3
5	25460	65000	3
5	25460	65000	3
5	25464	65000	3
5	25464	65000	3
5	25464	65000	3
5	25692	66000	3
5	25692	66000	3
5	25692	66000	3
5	25934	67000	3
5	25934	67000	3
5	25934	67000	3
5	26176	68000	3
5	26176	68000	3
5	26176	68000	3
5	26404	69000	3
5	26404	69000	3
5	26404	69000	3
5	26648	70000	3
5	26648	70000	3
5	26652	70000	3
5	26652	70000	3
5	26652	70000	3
5	26906	71000	3
5	26906	71000	3
5	26906	71000	3
5	27134	72000	3
5	27134	72000	3
5	27134	72000	3
5	27376	73000	3
5	27376	73000	3
5	27376	73000	3
5	27588	74000	3
5	27588	74000	3
5	27588	74000	3
5	27782	75000	3
5	27782	75000	3
5	27784	75000	3
5	27784	75000	3
5	27784	75000	3
5	27990	76000	3
5	27990	76000	3
5	27990	76000	3
5	28196	77000	3
5	28196	77000	3
5	28196	77000	3
5	28390	78000	3
5	28390	78000	3
5	28390	78000	3
5	28596	79000	3
5	28596	79000	3
5	28596	79000	3
5	28802	80000	3
5	28802	80000	3
5	28804	80000	3
5	28804	80000	3
5	28804	80000	3
5	28998	81000	3
5	28998	81000	3
5	28998	81000	3
5	29204	82000	3
5	29204	82000	3
5	29204	82000	3
5	29410	83000	3
5	29410	83000	3
5	29410	83000	3
5	29604	84000	3
5	29604	84000	3
5	29604	84000	3
5	29810	85000	3
5	29810	85000	3
5	29812	85000	3
5	29812	85000	3
5	29812	85000	3
5	30018	86000	3
5	30018	86000	3
5	30018	86000	3
5	30212	87000	3
5	30212	87000	3
5	30212	87000	3
6	0	0	1
6	3798	1000	0.99386666666667
6	3798	1000	0.99386666666667
6	3798	1000	0.99359259259259
6	4148	2000	0.98733148148148
6	4148	2000	0.98733148148148
6	4148	2000	0.98718518518519
6	4478	3000	0.98117962962963
6	4478	3000	0.98117962962963
6	4478	3000	0.98077777777778
6	4828	4000	0.97464444444444
6	4828	4000	0.97464444444444
6	4828	4000	0.97437037037037
6	5178	5000	0.96798148148148
6	5178	5000	0.96796759259259
6	5188	5000	0.96796759259259
6	5188	5000	0.96796759259259
6	5188	5000	0.9679537037037
6	5518	6000	0.96761425925926
6	5518	6000	0.96761425925926
6	5518	6000	0.9675787037037
6	5868	7000	0.96723203703704
6	5868	7000	0.96723203703704
6	5868	7000	0.9672037037037
6	6218	8000	0.96684981481481
6	6218	8000	0.96684981481481
6	6218	8000	0.9668287037037
6	6548	9000	0.96648925925926
6	6548	9000	0.96648925925926
6	6548	9000	0.9664537037037
6	6906	10000	0.96609259259259
6	6906	10000	0.96606944444444
6	6916	10000	0.96606944444444
6	6916	10000	0.96606944444444
6	6916	10000	0.9660462962963
6	7386	11000	0.93800740740741
6	7386	11000	0.93800740740741
6	7386	11000	0.93741203703704
6	7716	12000	0.91051759259259
6	7716	12000	0.91051759259259
6	7716	12000	0.90877777777778
6	8066	13000	0.88131111111111
6	8066	13000	0.88131111111111
6	8066	13000	0.88014351851852
6	8416	14000	0.85210462962963
6	8416	14000	0.85210462962963
6	8416	14000	0.85150925925926
6	8746	15000	0.82289814814815
6	8746	15000	0.82287962962963
6	8756	15000	0.82287962962963
6	8756	15000	0.82287962962963
6	8756	15000	0.82286111111111
6	9106	16000	0.81672777777778
6	9106	16000	0.81672777777778
6	9106	16000	0.8164537037037
6	9456	17000	0.81019259259259
6	9456	17000	0.81019259259259
6	9456	17000	0.8100462962963
6	9786	18000	0.80404074074074
6	9786	18000	0.80404074074074
6	9786	18000	0.80363888888889
6	10136	19000	0.79750555555556
6	10136	19000	0.79750555555556
6	10136	19000	0.79723148148148
6	10494	20000	0.79084259259259
6	10494	20000	0.7908287037037
6	10504	20000	0.7908287037037
6	10504	20000	0.7908287037037
6	10504	20000	0.79081481481481
6	10954	21000	0.79047537037037
6	10954	21000	0.79047537037037
6	10954	21000	0.79043981481481
6	11304	22000	0.79009314814815
6	11304	22000	0.79009314814815
6	11304	22000	0.79006481481481
6	11654	23000	0.78971092592593
6	11654	23000	0.78971092592593
6	11654	23000	0.78968981481481
6	11984	24000	0.78935037037037
6	11984	24000	0.78935037037037
6	11984	24000	0.78931481481481
6	12334	25000	0.7889537037037
6	12334	25000	0.78893055555556
6	12344	25000	0.78893055555556
6	12344	25000	0.78893055555556
6	12344	25000	0.78890740740741
6	12694	26000	0.76086851851852
6	12694	26000	0.76086851851852
6	12694	26000	0.76027314814815
6	13024	27000	0.7333787037037
6	13024	27000	0.7333787037037
6	13024	27000	0.73163888888889
6	13374	28000	0.70417222222222
6	13374	28000	0.70417222222222
6	13374	28000	0.70300462962963
6	13724	29000	0.67496574074074
6	13724	29000	0.67496574074074
6	13724	29000	0.67437037037037
6	14062	30000	0.64575925925926
6	14062	30000	0.64574074074074
6	14072	30000	0.64574074074074
6	14072	30000	0.64574074074074
6	14072	30000	0.64572222222222
6	14542	31000	0.63958888888889
6	14542	31000	0.63958888888889
6	14542	31000	0.63931481481481
6	14892	32000	0.6330537037037
6	14892	32000	0.6330537037037
6	14892	32000	0.63290740740741
6	15222	33000	0.62690185185185
6	15222	33000	0.62690185185185
6	15222	33000	0.6265
6	15572	34000	0.62036666666667
6	15572	34000	0.62036666666667
6	15572	34000	0.62009259259259
6	15922	35000	0.6137037037037
6	15922	35000	0.61368981481481
6	15932	35000	0.61368981481481
6	15932	35000	0.61368981481481
6	15932	35000	0.61367592592593
6	16262	36000	0.61333648148148
6	16262	36000	0.61333648148148
6	16262	36000	0.61330092592593
6	16612	37000	0.61295425925926
6	16612	37000	0.61295425925926
6	16612	37000	0.61292592592593
6	16962	38000	0.61257203703704
6	16962	38000	0.61257203703704
6	16962	38000	0.61255092592593
6	17292	39000	0.61221148148148
6	17292	39000	0.61221148148148
6	17292	39000	0.61217592592593
6	17650	40000	0.61181481481481
6	17650	40000	0.61179166666667
6	17660	40000	0.61179166666667
6	17660	40000	0.61179166666667
6	17660	40000	0.61176851851852
6	18130	41000	0.58372962962963
6	18130	41000	0.58372962962963
6	18130	41000	0.58313425925926
6	18460	42000	0.55623981481481
6	18460	42000	0.55623981481481
6	18460	42000	0.5545
6	18810	43000	0.52703333333333
6	18810	43000	0.52703333333333
6	18810	43000	0.52586574074074
6	19160	44000	0.49782685185185
6	19160	44000	0.49782685185185
6	19160	44000	0.49723148148148
6	19490	45000	0.46862037037037
6	19490	45000	0.46860185185185
6	19500	45000	0.46860185185185
6	19500	45000	0.46860185185185
6	19500	45000	0.46858333333333
6	19850	46000	0.46245
6	19850	46000	0.46245
6	19850	46000	0.46217592592593
6	20200	47000	0.45591481481481
6	20200	47000	0.45591481481481