version 2
run General-0-20151029-16:41:11-7804
attr configname General
attr datetime 20151029-16:41:11
attr experiment General
attr inifile omnetpp.ini
attr iterationvars ""
attr iterationvars2 $repetition=0
attr measurement ""
attr network ApplicationClustering
attr processid 7804
attr repetition 0
attr replication #0
attr resultdir results
attr runnumber 0
attr seedset 0

vector 6  ApplicationClustering.node1.batteryStats  capacity  ETV
attr unit  mW-s
vector 7  ApplicationClustering.node1.batteryStats  capacity(relative)  ETV
vector 8  ApplicationClustering.node1.batteryStats  estimate  ETV
attr unit  mW-s
vector 9  ApplicationClustering.node1.batteryStats  estimate(relative)  ETV
vector 17  ApplicationClustering.node2.batteryStats  capacity  ETV
attr unit  mW-s
vector 18  ApplicationClustering.node2.batteryStats  capacity(relative)  ETV
vector 19  ApplicationClustering.node2.batteryStats  estimate  ETV
attr unit  mW-s
vector 20  ApplicationClustering.node2.batteryStats  estimate(relative)  ETV
vector 28  ApplicationClustering.node3.batteryStats  capacity  ETV
attr unit  mW-s
vector 29  ApplicationClustering.node3.batteryStats  capacity(relative)  ETV
vector 30  ApplicationClustering.node3.batteryStats  estimate  ETV
attr unit  mW-s
vector 31  ApplicationClustering.node3.batteryStats  estimate(relative)  ETV
vector 39  ApplicationClustering.node4.batteryStats  capacity  ETV
attr unit  mW-s
vector 40  ApplicationClustering.node4.batteryStats  capacity(relative)  ETV
vector 41  ApplicationClustering.node4.batteryStats  estimate  ETV
attr unit  mW-s
vector 42  ApplicationClustering.node4.batteryStats  estimate(relative)  ETV
vector 50  ApplicationClustering.node5.batteryStats  capacity  ETV
attr unit  mW-s
vector 51  ApplicationClustering.node5.batteryStats  capacity(relative)  ETV
vector 52  ApplicationClustering.node5.batteryStats  estimate  ETV
attr unit  mW-s
vector 53  ApplicationClustering.node5.batteryStats  estimate(relative)  ETV
vector 61  ApplicationClustering.node6.batteryStats  capacity  ETV
attr unit  mW-s
vector 62  ApplicationClustering.node6.batteryStats  capacity(relative)  ETV
vector 63  ApplicationClustering.node6.batteryStats  estimate  ETV
attr unit  mW-s
vector 64  ApplicationClustering.node6.batteryStats  estimate(relative)  ETV
vector 72  ApplicationClustering.node7.batteryStats  capacity  ETV
attr unit  mW-s
vector 73  ApplicationClustering.node7.batteryStats  capacity(relative)  ETV
vector 74  ApplicationClustering.node7.batteryStats  estimate  ETV
attr unit  mW-s
vector 75  ApplicationClustering.node7.batteryStats  estimate(relative)  ETV
vector 83  ApplicationClustering.node8.batteryStats  capacity  ETV
attr unit  mW-s
vector 84  ApplicationClustering.node8.batteryStats  capacity(relative)  ETV
vector 85  ApplicationClustering.node8.batteryStats  estimate  ETV
attr unit  mW-s
vector 86  ApplicationClustering.node8.batteryStats  estimate(relative)  ETV
vector 94  ApplicationClustering.node9.batteryStats  capacity  ETV
attr unit  mW-s
vector 95  ApplicationClustering.node9.batteryStats  capacity(relative)  ETV
vector 96  ApplicationClustering.node9.batteryStats  estimate  ETV
attr unit  mW-s
vector 97  ApplicationClustering.node9.batteryStats  estimate(relative)  ETV
vector 105  ApplicationClustering.node10.batteryStats  capacity  ETV
attr unit  mW-s
vector 106  ApplicationClustering.node10.batteryStats  capacity(relative)  ETV
vector 107  ApplicationClustering.node10.batteryStats  estimate  ETV
attr unit  mW-s
vector 108  ApplicationClustering.node10.batteryStats  estimate(relative)  ETV
vector 116  ApplicationClustering.node11.batteryStats  capacity  ETV
attr unit  mW-s
vector 117  ApplicationClustering.node11.batteryStats  capacity(relative)  ETV
vector 118  ApplicationClustering.node11.batteryStats  estimate  ETV
attr unit  mW-s
vector 119  ApplicationClustering.node11.batteryStats  estimate(relative)  ETV
6	0	0	594000
6	12	2	593999.999874
6	34	4	593999.999748
6	256	6	593999.999622
6	278	8	593999.999496
6	300	10	593999.99937
6	332	12	593999.999244
6	354	14	593999.999118
6	386	16	593999.998992
6	408	18	593999.998866
6	430	20	593999.99874
6	462	22	593999.998614
6	484	24	593999.998488
6	516	26	593999.998362
6	538	28	593999.998236
6	560	30	593999.99811
6	592	32	593999.997984
6	614	34	593999.997858
6	836	36	593999.997732
6	858	38	593999.997606
6	880	40	593999.99748
6	912	42	593999.997354
6	934	44	593999.997228
6	966	46	593999.997102
6	988	48	593999.996976
6	1010	50	593999.99685
6	1042	52	593999.996724
6	1064	54	593999.996598
6	1096	56	593999.996472
6	1118	58	593999.996346
6	1140	60	593999.99622
6	1172	62	593999.996094
6	1194	64	593999.995968
6	1416	66	593999.995842
6	1438	68	593999.995716
6	1460	70	593999.99559
6	1492	72	593999.995464
6	1514	74	593999.995338
6	1546	76	593999.995212
6	1568	78	593999.995086
6	1590	80	593999.99496
6	1622	82	593999.994834
6	1644	84	593999.994708
6	1676	86	593999.994582
6	1698	88	593999.994456
7	0	0	1
7	12	2	0.99999999978788
7	34	4	0.99999999957576
7	256	6	0.99999999936364
7	278	8	0.99999999915151
7	300	10	0.99999999893939
7	332	12	0.99999999872727
7	354	14	0.99999999851515
7	386	16	0.99999999830303
7	408	18	0.99999999809091
7	430	20	0.99999999787879
7	462	22	0.99999999766667
7	484	24	0.99999999745454
7	516	26	0.99999999724242
7	538	28	0.9999999970303
7	560	30	0.99999999681818
7	592	32	0.99999999660606
7	614	34	0.99999999639394
7	836	36	0.99999999618182
7	858	38	0.9999999959697
7	880	40	0.99999999575757
7	912	42	0.99999999554545
7	934	44	0.99999999533333
7	966	46	0.99999999512121
7	988	48	0.99999999490909
7	1010	50	0.99999999469697
7	1042	52	0.99999999448485
7	1064	54	0.99999999427273
7	1096	56	0.9999999940606
7	1118	58	0.99999999384848
7	1140	60	0.99999999363636
7	1172	62	0.99999999342424
7	1194	64	0.99999999321212
7	1416	66	0.999999993
7	1438	68	0.99999999278788
7	1460	70	0.99999999257576
7	1492	72	0.99999999236363
7	1514	74	0.99999999215151
7	1546	76	0.99999999193939
7	1568	78	0.99999999172727
7	1590	80	0.99999999151515
7	1622	82	0.99999999130303
7	1644	84	0.99999999109091
7	1676	86	0.99999999087879
7	1698	88	0.99999999066666
8	0	0	594000
8	12	2	593999.999874
8	34	4	593999.999748
8	256	6	593999.999622
8	278	8	593999.999496
8	300	10	593999.99937
8	332	12	593999.999244
8	354	14	593999.999118
8	386	16	593999.998992
8	408	18	593999.998866
8	430	20	593999.99874
8	462	22	593999.998614
8	484	24	593999.998488
8	516	26	593999.998362
8	538	28	593999.998236
8	560	30	593999.99811
8	592	32	593999.997984
8	614	34	593999.997858
8	836	36	593999.997732
8	858	38	593999.997606
8	880	40	593999.99748
8	912	42	593999.997354
8	934	44	593999.997228
8	966	46	593999.997102
8	988	48	593999.996976
8	1010	50	593999.99685
8	1042	52	593999.996724
8	1064	54	593999.996598
8	1096	56	593999.996472
8	1118	58	593999.996346
8	1140	60	593999.99622
8	1172	62	593999.996094
8	1194	64	593999.995968
8	1416	66	593999.995842
8	1438	68	593999.995716
8	1460	70	593999.99559
8	1492	72	593999.995464
8	1514	74	593999.995338
8	1546	76	593999.995212
8	1568	78	593999.995086
8	1590	80	593999.99496
8	1622	82	593999.994834
8	1644	84	593999.994708
8	1676	86	593999.994582
8	1698	88	593999.994456
9	0	0	1
9	12	2	0.99999999978788
9	34	4	0.99999999957576
9	256	6	0.99999999936364
9	278	8	0.99999999915151
9	300	10	0.99999999893939
9	332	12	0.99999999872727
9	354	14	0.99999999851515
9	386	16	0.99999999830303
9	408	18	0.99999999809091
9	430	20	0.99999999787879
9	462	22	0.99999999766667
9	484	24	0.99999999745454
9	516	26	0.99999999724242
9	538	28	0.9999999970303
9	560	30	0.99999999681818
9	592	32	0.99999999660606
9	614	34	0.99999999639394
9	836	36	0.99999999618182
9	858	38	0.9999999959697
9	880	40	0.99999999575757
9	912	42	0.99999999554545
9	934	44	0.99999999533333
9	966	46	0.99999999512121
9	988	48	0.99999999490909
9	1010	50	0.99999999469697
9	1042	52	0.99999999448485
9	1064	54	0.99999999427273
9	1096	56	0.9999999940606
9	1118	58	0.99999999384848
9	1140	60	0.99999999363636
9	1172	62	0.99999999342424
9	1194	64	0.99999999321212
9	1416	66	0.999999993
9	1438	68	0.99999999278788
9	1460	70	0.99999999257576
9	1492	72	0.99999999236363
9	1514	74	0.99999999215151
9	1546	76	0.99999999193939
9	1568	78	0.99999999172727
9	1590	80	0.99999999151515
9	1622	82	0.99999999130303
9	1644	84	0.99999999109091
9	1676	86	0.99999999087879
9	1698	88	0.99999999066666
17	0	0	594000
17	13	2	593999.999874
17	35	4	593999.999748
17	257	6	593999.999622
17	279	8	593999.999496
17	301	10	593999.99937
17	333	12	593999.999244
17	355	14	593999.999118
17	387	16	593999.998992
17	409	18	593999.998866
17	431	20	593999.99874
17	463	22	593999.998614
17	485	24	593999.998488
17	517	26	593999.998362
17	539	28	593999.998236
17	561	30	593999.99811
17	593	32	593999.997984
17	615	34	593999.997858
17	837	36	593999.997732
17	859	38	593999.997606
17	881	40	593999.99748
17	913	42	593999.997354
17	935	44	593999.997228
17	967	46	593999.997102
17	989	48	593999.996976
17	1011	50	593999.99685
17	1043	52	593999.996724
17	1065	54	593999.996598
17	1097	56	593999.996472
17	1119	58	593999.996346
17	1141	60	593999.99622
17	1173	62	593999.996094
17	1195	64	593999.995968
17	1417	66	593999.995842
17	1439	68	593999.995716
17	1461	70	593999.99559
17	1493	72	593999.995464
17	1515	74	593999.995338
17	1547	76	593999.995212
17	1569	78	593999.995086
17	1591	80	593999.99496
17	1623	82	593999.994834
17	1645	84	593999.994708
17	1677	86	593999.994582
17	1699	88	593999.994456
18	0	0	1
18	13	2	0.99999999978788
18	35	4	0.99999999957576
18	257	6	0.99999999936364
18	279	8	0.99999999915151
18	301	10	0.99999999893939
18	333	12	0.99999999872727
18	355	14	0.99999999851515
18	387	16	0.99999999830303
18	409	18	0.99999999809091
18	431	20	0.99999999787879
18	463	22	0.99999999766667
18	485	24	0.99999999745454
18	517	26	0.99999999724242
18	539	28	0.9999999970303
18	561	30	0.99999999681818
18	593	32	0.99999999660606
18	615	34	0.99999999639394
18	837	36	0.99999999618182
18	859	38	0.9999999959697
18	881	40	0.99999999575757
18	913	42	0.99999999554545
18	935	44	0.99999999533333
18	967	46	0.99999999512121
18	989	48	0.99999999490909
18	1011	50	0.99999999469697
18	1043	52	0.99999999448485
18	1065	54	0.99999999427273
18	1097	56	0.9999999940606
18	1119	58	0.99999999384848
18	1141	60	0.99999999363636
18	1173	62	0.99999999342424
18	1195	64	0.99999999321212
18	1417	66	0.999999993
18	1439	68	0.99999999278788
18	1461	70	0.99999999257576
18	1493	72	0.99999999236363
18	1515	74	0.99999999215151
18	1547	76	0.99999999193939
18	1569	78	0.99999999172727
18	1591	80	0.99999999151515
18	1623	82	0.99999999130303
18	1645	84	0.99999999109091
18	1677	86	0.99999999087879
18	1699	88	0.99999999066666
19	0	0	594000
19	13	2	593999.999874
19	35	4	593999.999748
19	257	6	593999.999622
19	279	8	593999.999496
19	301	10	593999.99937
19	333	12	593999.999244
19	355	14	593999.999118
19	387	16	593999.998992
19	409	18	593999.998866
19	431	20	593999.99874
19	463	22	593999.998614
19	485	24	593999.998488
19	517	26	593999.998362
19	539	28	593999.998236
19	561	30	593999.99811
19	593	32	593999.997984
19	615	34	593999.997858
19	837	36	593999.997732
19	859	38	593999.997606
19	881	40	593999.99748
19	913	42	593999.997354
19	935	44	593999.997228
19	967	46	593999.997102
19	989	48	593999.996976
19	1011	50	593999.99685
19	1043	52	593999.996724
19	1065	54	593999.996598
19	1097	56	593999.996472
19	1119	58	593999.996346
19	1141	60	593999.99622
19	1173	62	593999.996094
19	1195	64	593999.995968
19	1417	66	593999.995842
19	1439	68	593999.995716
19	1461	70	593999.99559
19	1493	72	593999.995464
19	1515	74	593999.995338
19	1547	76	593999.995212
19	1569	78	593999.995086
19	1591	80	593999.99496
19	1623	82	593999.994834
19	1645	84	593999.994708
19	1677	86	593999.994582
19	1699	88	593999.994456
20	0	0	1
20	13	2	0.99999999978788
20	35	4	0.99999999957576
20	257	6	0.99999999936364
20	279	8	0.99999999915151
20	301	10	0.99999999893939
20	333	12	0.99999999872727
20	355	14	0.99999999851515
20	387	16	0.99999999830303
20	409	18	0.99999999809091
20	431	20	0.99999999787879
20	463	22	0.99999999766667
20	485	24	0.99999999745454
20	517	26	0.99999999724242
20	539	28	0.9999999970303
20	561	30	0.99999999681818
20	593	32	0.99999999660606
20	615	34	0.99999999639394
20	837	36	0.99999999618182
20	859	38	0.9999999959697
20	881	40	0.99999999575757
20	913	42	0.99999999554545
20	935	44	0.99999999533333
20	967	46	0.99999999512121
20	989	48	0.99999999490909
20	1011	50	0.99999999469697
20	1043	52	0.99999999448485
20	1065	54	0.99999999427273
20	1097	56	0.9999999940606
20	1119	58	0.99999999384848
20	1141	60	0.99999999363636
20	1173	62	0.99999999342424
20	1195	64	0.99999999321212
20	1417	66	0.999999993
20	1439	68	0.99999999278788
20	1461	70	0.99999999257576
20	1493	72	0.99999999236363
20	1515	74	0.99999999215151
20	1547	76	0.99999999193939
20	1569	78	0.99999999172727
20	1591	80	0.99999999151515
20	1623	82	0.99999999130303
20	1645	84	0.99999999109091
20	1677	86	0.99999999087879
20	1699	88	0.99999999066666
28	0	0	594000
28	14	2	593999.999874
28	36	4	593999.999748
28	258	6	593999.999622
28	280	8	593999.999496
28	302	10	593999.99937
28	334	12	593999.999244
28	356	14	593999.999118
28	388	16	593999.998992
28	410	18	593999.998866
28	432	20	593999.99874
28	464	22	593999.998614
28	486	24	593999.998488
28	518	26	593999.998362
28	540	28	593999.998236
28	562	30	593999.99811
28	594	32	593999.997984
28	616	34	593999.997858
28	838	36	593999.997732
28	860	38	593999.997606
28	882	40	593999.99748
28	914	42	593999.997354
28	936	44	593999.997228
28	968	46	593999.997102
28	990	48	593999.996976
28	1012	50	593999.99685
28	1044	52	593999.996724
28	1066	54	593999.996598
28	1098	56	593999.996472
28	1120	58	593999.996346
28	1142	60	593999.99622
28	1174	62	593999.996094
28	1196	64	593999.995968
28	1418	66	593999.995842
28	1440	68	593999.995716
28	1462	70	593999.99559
28	1494	72	593999.995464
28	1516	74	593999.995338
28	1548	76	593999.995212
28	1570	78	593999.995086
28	1592	80	593999.99496
28	1624	82	593999.994834
28	1646	84	593999.994708
28	1678	86	593999.994582
28	1700	88	593999.994456
29	0	0	1
29	14	2	0.99999999978788
29	36	4	0.99999999957576
29	258	6	0.99999999936364
29	280	8	0.99999999915151
29	302	10	0.99999999893939
29	334	12	0.99999999872727
29	356	14	0.99999999851515
29	388	16	0.99999999830303
29	410	18	0.99999999809091
29	432	20	0.99999999787879
29	464	22	0.99999999766667
29	486	24	0.99999999745454
29	518	26	0.99999999724242
29	540	28	0.9999999970303
29	562	30	0.99999999681818
29	594	32	0.99999999660606
29	616	34	0.99999999639394
29	838	36	0.99999999618182
29	860	38	0.9999999959697
29	882	40	0.99999999575757
29	914	42	0.99999999554545
29	936	44	0.99999999533333
29	968	46	0.99999999512121
29	990	48	0.99999999490909
29	1012	50	0.99999999469697
29	1044	52	0.99999999448485
29	1066	54	0.99999999427273
29	1098	56	0.9999999940606
29	1120	58	0.99999999384848
29	1142	60	0.99999999363636
29	1174	62	0.99999999342424
29	1196	64	0.99999999321212
29	1418	66	0.999999993
29	1440	68	0.99999999278788
29	1462	70	0.99999999257576
29	1494	72	0.99999999236363
29	1516	74	0.99999999215151
29	1548	76	0.99999999193939
29	1570	78	0.99999999172727
29	1592	80	0.99999999151515
29	1624	82	0.99999999130303
29	1646	84	0.99999999109091
29	1678	86	0.99999999087879
29	1700	88	0.99999999066666
30	0	0	594000
30	14	2	593999.999874
30	36	4	593999.999748
30	258	6	593999.999622
30	280	8	593999.999496
30	302	10	593999.99937
30	334	12	593999.999244
30	356	14	593999.999118
30	388	16	593999.998992
30	410	18	593999.998866
30	432	20	593999.99874
30	464	22	593999.998614
30	486	24	593999.998488
30	518	26	593999.998362
30	540	28	593999.998236
30	562	30	593999.99811
30	594	32	593999.997984
30	616	34	593999.997858
30	838	36	593999.997732
30	860	38	593999.997606
30	882	40	593999.99748
30	914	42	593999.997354
30	936	44	593999.997228
30	968	46	593999.997102
30	990	48	593999.996976
30	1012	50	593999.99685
30	1044	52	593999.996724
30	1066	54	593999.996598
30	1098	56	593999.996472
30	1120	58	593999.996346
30	1142	60	593999.99622
30	1174	62	593999.996094
30	1196	64	593999.995968
30	1418	66	593999.995842
30	1440	68	593999.995716
30	1462	70	593999.99559
30	1494	72	593999.995464
30	1516	74	593999.995338
30	1548	76	593999.995212
30	1570	78	593999.995086
30	1592	80	593999.99496
30	1624	82	593999.994834
30	1646	84	593999.994708
30	1678	86	593999.994582
30	1700	88	593999.994456
31	0	0	1
31	14	2	0.99999999978788
31	36	4	0.99999999957576
31	258	6	0.99999999936364
31	280	8	0.99999999915151
31	302	10	0.99999999893939
31	334	12	0.99999999872727
31	356	14	0.99999999851515
31	388	16	0.99999999830303
31	410	18	0.99999999809091
31	432	20	0.99999999787879
31	464	22	0.99999999766667
31	486	24	0.99999999745454
31	518	26	0.99999999724242
31	540	28	0.9999999970303
31	562	30	0.99999999681818
31	594	32	0.99999999660606
31	616	34	0.99999999639394
31	838	36	0.99999999618182
31	860	38	0.9999999959697
31	882	40	0.99999999575757
31	914	42	0.99999999554545
31	936	44	0.99999999533333
31	968	46	0.99999999512121
31	990	48	0.99999999490909
31	1012	50	0.99999999469697
31	1044	52	0.99999999448485
31	1066	54	0.99999999427273
31	1098	56	0.9999999940606
31	1120	58	0.99999999384848
31	1142	60	0.99999999363636
31	1174	62	0.99999999342424
31	1196	64	0.99999999321212
31	1418	66	0.999999993
31	1440	68	0.99999999278788
31	1462	70	0.99999999257576
31	1494	72	0.99999999236363
31	1516	74	0.99999999215151
31	1548	76	0.99999999193939
31	1570	78	0.99999999172727
31	1592	80	0.99999999151515
31	1624	82	0.99999999130303
31	1646	84	0.99999999109091
31	1678	86	0.99999999087879
31	1700	88	0.99999999066666
39	0	0	594000
39	15	2	593999.999874
39	37	4	593999.999748
39	259	6	593999.999622
39	281	8	593999.999496
39	303	10	593999.99937
39	335	12	593999.999244
39	357	14	593999.999118
39	389	16	593999.998992
39	411	18	593999.998866
39	433	20	593999.99874
39	465	22	593999.998614
39	487	24	593999.998488
39	519	26	593999.998362
39	541	28	593999.998236
39	563	30	593999.99811
39	595	32	593999.997984
39	617	34	593999.997858
39	839	36	593999.997732
39	861	38	593999.997606
39	883	40	593999.99748
39	915	42	593999.997354
39	937	44	593999.997228
39	969	46	593999.997102
39	991	48	593999.996976
39	1013	50	593999.99685
39	1045	52	593999.996724
39	1067	54	593999.996598
39	1099	56	593999.996472
39	1121	58	593999.996346
39	1143	60	593999.99622
39	1175	62	593999.996094
39	1197	64	593999.995968
39	1419	66	593999.995842
39	1441	68	593999.995716
39	1463	70	593999.99559
39	1495	72	593999.995464
39	1517	74	593999.995338
39	1549	76	593999.995212
39	1571	78	593999.995086
39	1593	80	593999.99496
39	1625	82	593999.994834
39	1647	84	593999.994708
39	1679	86	593999.994582
39	1701	88	593999.994456
40	0	0	1
40	15	2	0.99999999978788
40	37	4	0.99999999957576
40	259	6	0.99999999936364
40	281	8	0.99999999915151
40	303	10	0.99999999893939
40	335	12	0.99999999872727
40	357	14	0.99999999851515
40	389	16	0.99999999830303
40	411	18	0.99999999809091
40	433	20	0.99999999787879
40	465	22	0.99999999766667
40	487	24	0.99999999745454
40	519	26	0.99999999724242
40	541	28	0.9999999970303
40	563	30	0.99999999681818
40	595	32	0.99999999660606
40	617	34	0.99999999639394
40	839	36	0.99999999618182
40	861	38	0.9999999959697
40	883	40	0.99999999575757
40	915	42	0.99999999554545
40	937	44	0.99999999533333
40	969	46	0.99999999512121
40	991	48	0.99999999490909
40	1013	50	0.99999999469697
40	1045	52	0.99999999448485
40	1067	54	0.99999999427273
40	1099	56	0.9999999940606
40	1121	58	0.99999999384848
40	1143	60	0.99999999363636
40	1175	62	0.99999999342424
40	1197	64	0.99999999321212
40	1419	66	0.999999993
40	1441	68	0.99999999278788
40	1463	70	0.99999999257576
40	1495	72	0.99999999236363
40	1517	74	0.99999999215151
40	1549	76	0.99999999193939
40	1571	78	0.99999999172727
40	1593	80	0.99999999151515
40	1625	82	0.99999999130303
40	1647	84	0.99999999109091
40	1679	86	0.99999999087879
40	1701	88	0.99999999066666
41	0	0	594000
41	15	2	593999.999874
41	37	4	593999.999748
41	259	6	593999.999622
41	281	8	593999.999496
41	303	10	593999.99937
41	335	12	593999.999244
41	357	14	593999.999118
41	389	16	593999.998992
41	411	18	593999.998866
41	433	20	593999.99874
41	465	22	593999.998614
41	487	24	593999.998488
41	519	26	593999.998362
41	541	28	593999.998236
41	563	30	593999.99811
41	595	32	593999.997984
41	617	34	593999.997858
41	839	36	593999.997732
41	861	38	593999.997606
41	883	40	593999.99748
41	915	42	593999.997354
41	937	44	593999.997228
41	969	46	593999.997102
41	991	48	593999.996976
41	1013	50	593999.99685
41	1045	52	593999.996724
41	1067	54	593999.996598
41	1099	56	593999.996472
41	1121	58	593999.996346
41	1143	60	593999.99622
41	1175	62	593999.996094
41	1197	64	593999.995968
41	1419	66	593999.995842
41	1441	68	593999.995716
41	1463	70	593999.99559
41	1495	72	593999.995464
41	1517	74	593999.995338
41	1549	76	593999.995212
41	1571	78	593999.995086
41	1593	80	593999.99496
41	1625	82	593999.994834
41	1647	84	593999.994708
41	1679	86	593999.994582
41	1701	88	593999.994456
42	0	0	1
42	15	2	0.99999999978788
42	37	4	0.99999999957576
42	259	6	0.99999999936364
42	281	8	0.99999999915151
42	303	10	0.99999999893939
42	335	12	0.99999999872727
42	357	14	0.99999999851515
42	389	16	0.99999999830303
42	411	18	0.99999999809091
42	433	20	0.99999999787879
42	465	22	0.99999999766667
42	487	24	0.99999999745454
42	519	26	0.99999999724242
42	541	28	0.9999999970303
42	563	30	0.99999999681818
42	595	32	0.99999999660606
42	617	34	0.99999999639394
42	839	36	0.99999999618182
42	861	38	0.9999999959697
42	883	40	0.99999999575757
42	915	42	0.99999999554545
42	937	44	0.99999999533333
42	969	46	0.99999999512121
42	991	48	0.99999999490909
42	1013	50	0.99999999469697
42	1045	52	0.99999999448485
42	1067	54	0.99999999427273
42	1099	56	0.9999999940606
42	1121	58	0.99999999384848
42	1143	60	0.99999999363636
42	1175	62	0.99999999342424
42	1197	64	0.99999999321212
42	1419	66	0.999999993
42	1441	68	0.99999999278788
42	1463	70	0.99999999257576
42	1495	72	0.99999999236363
42	1517	74	0.99999999215151
42	1549	76	0.99999999193939
42	1571	78	0.99999999172727
42	1593	80	0.99999999151515
42	1625	82	0.99999999130303
42	1647	84	0.99999999109091
42	1679	86	0.99999999087879
42	1701	88	0.99999999066666
50	0	0	594000
50	16	2	593999.999874
50	38	4	593999.999748
50	260	6	593999.999622
50	282	8	593999.999496
50	304	10	593999.99937
50	336	12	593999.999244
50	358	14	593999.999118
50	390	16	593999.998992
50	412	18	593999.998866
50	434	20	593999.99874
50	466	22	593999.998614
50	488	24	593999.998488
50	520	26	593999.998362
50	542	28	593999.998236
50	564	30	593999.99811
50	596	32	593999.997984
50	618	34	593999.997858
50	840	36	593999.997732
50	862	38	593999.997606
50	884	40	593999.99748
50	916	42	593999.997354
50	938	44	593999.997228
50	970	46	593999.997102
50	992	48	593999.996976
50	1014	50	593999.99685
50	1046	52	593999.996724
50	1068	54	593999.996598
50	1100	56	593999.996472
50	1122	58	593999.996346
50	1144	60	593999.99622
50	1176	62	593999.996094
50	1198	64	593999.995968
50	1420	66	593999.995842
50	1442	68	593999.995716
50	1464	70	593999.99559
50	1496	72	593999.995464
50	1518	74	593999.995338
50	1550	76	593999.995212
50	1572	78	593999.995086
50	1594	80	593999.99496
50	1626	82	593999.994834
50	1648	84	593999.994708
50	1680	86	593999.994582
50	1702	88	593999.994456
51	0	0	1
51	16	2	0.99999999978788
51	38	4	0.99999999957576
51	260	6	0.99999999936364
51	282	8	0.99999999915151
51	304	10	0.99999999893939
51	336	12	0.99999999872727
51	358	14	0.99999999851515
51	390	16	0.99999999830303
51	412	18	0.99999999809091
51	434	20	0.99999999787879
51	466	22	0.99999999766667
51	488	24	0.99999999745454
51	520	26	0.99999999724242
51	542	28	0.9999999970303
51	564	30	0.99999999681818
51	596	32	0.99999999660606
51	618	34	0.99999999639394
51	840	36	0.99999999618182
51	862	38	0.9999999959697
51	884	40	0.99999999575757
51	916	42	0.99999999554545
51	938	44	0.99999999533333
51	970	46	0.99999999512121
51	992	48	0.99999999490909
51	1014	50	0.99999999469697
51	1046	52	0.99999999448485
51	1068	54	0.99999999427273
51	1100	56	0.9999999940606
51	1122	58	0.99999999384848
51	1144	60	0.99999999363636
51	1176	62	0.99999999342424
51	1198	64	0.99999999321212
51	1420	66	0.999999993
51	1442	68	0.99999999278788
51	1464	70	0.99999999257576
51	1496	72	0.99999999236363
51	1518	74	0.99999999215151
51	1550	76	0.99999999193939
51	1572	78	0.99999999172727
51	1594	80	0.99999999151515
51	1626	82	0.99999999130303
51	1648	84	0.99999999109091
51	1680	86	0.99999999087879
51	1702	88	0.99999999066666
52	0	0	594000
52	16	2	593999.999874
52	38	4	593999.999748
52	260	6	593999.999622
52	282	8	593999.999496
52	304	10	593999.99937
52	336	12	593999.999244
52	358	14	593999.999118
52	390	16	593999.998992
52	412	18	593999.998866
52	434	20	593999.99874
52	466	22	593999.998614
52	488	24	593999.998488
52	520	26	593999.998362
52	542	28	593999.998236
52	564	30	593999.99811
52	596	32	593999.997984
52	618	34	593999.997858
52	840	36	593999.997732
52	862	38	593999.997606
52	884	40	593999.99748
52	916	42	593999.997354
52	938	44	593999.997228
52	970	46	593999.997102
52	992	48	593999.996976
52	1014	50	593999.99685
52	1046	52	593999.996724
52	1068	54	593999.996598
52	1100	56	593999.996472
52	1122	58	593999.996346
52	1144	60	593999.99622
52	1176	62	593999.996094
52	1198	64	593999.995968
52	1420	66	593999.995842
52	1442	68	593999.995716
52	1464	70	593999.99559
52	1496	72	593999.995464
52	1518	74	593999.995338
52	1550	76	593999.995212
52	1572	78	593999.995086
52	1594	80	593999.99496
52	1626	82	593999.994834
52	1648	84	593999.994708
52	1680	86	593999.994582
52	1702	88	593999.994456
53	0	0	1
53	16	2	0.99999999978788
53	38	4	0.99999999957576
53	260	6	0.99999999936364
53	282	8	0.99999999915151
53	304	10	0.99999999893939
53	336	12	0.99999999872727
53	358	14	0.99999999851515
53	390	16	0.99999999830303
53	412	18	0.99999999809091
53	434	20	0.99999999787879
53	466	22	0.99999999766667
53	488	24	0.99999999745454
53	520	26	0.99999999724242
53	542	28	0.9999999970303
53	564	30	0.99999999681818
53	596	32	0.99999999660606
53	618	34	0.99999999639394
53	840	36	0.99999999618182
53	862	38	0.9999999959697
53	884	40	0.99999999575757
53	916	42	0.99999999554545
53	938	44	0.99999999533333
53	970	46	0.99999999512121
53	992	48	0.99999999490909
53	1014	50	0.99999999469697
53	1046	52	0.99999999448485
53	1068	54	0.99999999427273
53	1100	56	0.9999999940606
53	1122	58	0.99999999384848
53	1144	60	0.99999999363636
53	1176	62	0.99999999342424
53	1198	64	0.99999999321212
53	1420	66	0.999999993
53	1442	68	0.99999999278788
53	1464	70	0.99999999257576
53	1496	72	0.99999999236363
53	1518	74	0.99999999215151
53	1550	76	0.99999999193939
53	1572	78	0.99999999172727
53	1594	80	0.99999999151515
53	1626	82	0.99999999130303
53	1648	84	0.99999999109091
53	1680	86	0.99999999087879
53	1702	88	0.99999999066666
61	0	0	594000
61	17	2	593999.999874
61	39	4	593999.999748
61	261	6	593999.999622
61	283	8	593999.999496
61	305	10	593999.99937
61	337	12	593999.999244
61	359	14	593999.999118
61	391	16	593999.998992
61	413	18	593999.998866
61	435	20	593999.99874
61	467	22	593999.998614
61	489	24	593999.998488
61	521	26	593999.998362
61	543	28	593999.998236
61	565	30	593999.99811
61	597	32	593999.997984
61	619	34	593999.997858
61	841	36	593999.997732
61	863	38	593999.997606
61	885	40	593999.99748
61	917	42	593999.997354
61	939	44	593999.997228
61	971	46	593999.997102
61	993	48	593999.996976
61	1015	50	593999.99685
61	1047	52	593999.996724
61	1069	54	593999.996598
61	1101	56	593999.996472
61	1123	58	593999.996346
61	1145	60	593999.99622
61	1177	62	593999.996094
61	1199	64	593999.995968
61	1421	66	593999.995842
61	1443	68	593999.995716
61	1465	70	593999.99559
61	1497	72	593999.995464
61	1519	74	593999.995338
61	1551	76	593999.995212
61	1573	78	593999.995086
61	1595	80	593999.99496
61	1627	82	593999.994834
61	1649	84	593999.994708
61	1681	86	593999.994582
61	1703	88	593999.994456
62	0	0	1
62	17	2	0.99999999978788
62	39	4	0.99999999957576
62	261	6	0.99999999936364
62	283	8	0.99999999915151
62	305	10	0.99999999893939
62	337	12	0.99999999872727
62	359	14	0.99999999851515
62	391	16	0.99999999830303
62	413	18	0.99999999809091
62	435	20	0.99999999787879
62	467	22	0.99999999766667
62	489	24	0.99999999745454
62	521	26	0.99999999724242
62	543	28	0.9999999970303
62	565	30	0.99999999681818
62	597	32	0.99999999660606
62	619	34	0.99999999639394
62	841	36	0.99999999618182
62	863	38	0.9999999959697
62	885	40	0.99999999575757
62	917	42	0.99999999554545
62	939	44	0.99999999533333
62	971	46	0.99999999512121
62	993	48	0.99999999490909
62	1015	50	0.99999999469697
62	1047	52	0.99999999448485
62	1069	54	0.99999999427273
62	1101	56	0.9999999940606
62	1123	58	0.99999999384848
62	1145	60	0.99999999363636
62	1177	62	0.99999999342424
62	1199	64	0.99999999321212
62	1421	66	0.999999993
62	1443	68	0.99999999278788
62	1465	70	0.99999999257576
62	1497	72	0.99999999236363
62	1519	74	0.99999999215151
62	1551	76	0.99999999193939
62	1573	78	0.99999999172727
62	1595	80	0.99999999151515
62	1627	82	0.99999999130303
62	1649	84	0.99999999109091
62	1681	86	0.99999999087879
62	1703	88	0.99999999066666
63	0	0	594000
63	17	2	593999.999874
63	39	4	593999.999748
63	261	6	593999.999622
63	283	8	593999.999496
63	305	10	593999.99937
63	337	12	593999.999244
63	359	14	593999.999118
63	391	16	593999.998992
63	413	18	593999.998866
63	435	20	593999.99874
63	467	22	593999.998614
63	489	24	593999.998488
63	521	26	593999.998362
63	543	28	593999.998236
63	565	30	593999.99811
63	597	32	593999.997984
63	619	34	593999.997858
63	841	36	593999.997732
63	863	38	593999.997606
63	885	40	593999.99748
63	917	42	593999.997354
63	939	44	593999.997228
63	971	46	593999.997102
63	993	48	593999.996976
63	1015	50	593999.99685
63	1047	52	593999.996724
63	1069	54	593999.996598
63	1101	56	593999.996472
63	1123	58	593999.996346
63	1145	60	593999.99622
63	1177	62	593999.996094
63	1199	64	593999.995968
63	1421	66	593999.995842
63	1443	68	593999.995716
63	1465	70	593999.99559
63	1497	72	593999.995464
63	1519	74	593999.995338
63	1551	76	593999.995212
63	1573	78	593999.995086
63	1595	80	593999.99496
63	1627	82	593999.994834
63	1649	84	593999.994708
63	1681	86	593999.994582
63	1703	88	593999.994456
64	0	0	1
64	17	2	0.99999999978788
64	39	4	0.99999999957576
64	261	6	0.99999999936364
64	283	8	0.99999999915151