version 2
run General-0-20150519-10:21:04-7006
attr configname General
attr datetime 20150519-10:21:04
attr experiment General
attr inifile omnetpp.ini
attr iterationvars ""
attr iterationvars2 $repetition=0
attr measurement ""
attr network SensorExample
attr processid 7006
attr repetition 0
attr replication #0
attr resultdir results
attr runnumber 0
attr seedset 0

vector 3  SensorExample.SensorNode.Processor  "power mode"  ETV
vector 4  SensorExample.SensorNode.Processor  "Sensor Modules Status"  ETV
vector 5  SensorExample.SensorNode.Processor  Voltage  ETV
vector 6  SensorExample.SensorNode.Processor  residualRelative  ETV
vector 7  SensorExample.SensorNode.Processor  residualAbs  ETV
vector 8  SensorExample.SensorNode.TemperatureSensor.SensingUnit  "Energy Consumptions"  ETV
vector 9  SensorExample.SensorNode.TemperatureSensor.SensingUnit  "Current use over time"  ETV
vector 10  SensorExample.SensorNode.TemperatureSensor.SignalConditioner  "Energy Consumptions"  ETV
vector 11  SensorExample.SensorNode.TemperatureSensor.SignalConditioner  "Current use over time"  ETV
vector 12  SensorExample.SensorNode.TemperatureSensor.SignalConverter  "Energy Consumptions"  ETV
vector 13  SensorExample.SensorNode.TemperatureSensor.SignalConverter  "Current use over time"  ETV
vector 14  SensorExample.SensorNode.TemperatureSensor.Transducer  "Energy Consumptions"  ETV
vector 15  SensorExample.SensorNode.TemperatureSensor.Transducer  "Current use over time"  ETV
vector 16  SensorExample.SensorNode.Memory  "Energy Consumptions"  ETV
vector 17  SensorExample.SensorNode.Memory  "Current use over time"  ETV
3	0	0	0
3	0	0	0
3	98	2000	1
3	167	4000	2
3	236	6000	0
3	236	6000	0
3	307	8000	1
3	377	10000	2
3	453	12000	0
3	453	12000	0
4	0	0	0
4	4	0	0
4	376	10000	1
4	383	10000	0
5	0	0	3
5	4	0	3
5	4	0	3
5	63	1000	3
5	63	1000	3
5	63	1000	3
5	98	2000	3
5	98	2000	3
5	99	2000	3
5	99	2000	3
5	99	2000	3
5	132	3000	3
5	132	3000	3
5	132	3000	3
5	167	4000	3
5	167	4000	3
5	168	4000	3
5	168	4000	3
5	168	4000	3
5	203	5000	3
5	203	5000	3
5	203	5000	3
5	236	6000	3
5	236	6000	3
5	237	6000	3
5	237	6000	3
5	237	6000	3
5	272	7000	3
5	272	7000	3
5	272	7000	3
5	307	8000	3
5	307	8000	3
5	308	8000	3
5	308	8000	3
5	308	8000	3
5	341	9000	3
5	341	9000	3
5	341	9000	3
5	376	10000	3
5	376	10000	3
5	377	10000	3
5	377	10000	3
5	378	10000	3
5	378	10000	3
5	378	10000	3
5	383	10000	3
5	383	10000	3
5	419	11000	3
5	419	11000	3
5	419	11000	3
5	453	12000	3
5	453	12000	3
5	454	12000	3
5	454	12000	3
5	454	12000	3
5	489	13000	3
5	489	13000	3
5	489	13000	3
6	0	0	1
6	4	0	0.9999537037037
6	4	0	0.99993518518519
6	63	1000	0.99059259259259
6	63	1000	0.99059259259259
6	63	1000	0.99018518518519
6	98	2000	0.98046296296296
6	98	2000	0.98044907407407
6	99	2000	0.98044907407407
6	99	2000	0.98044907407407
6	99	2000	0.98043518518519
6	132	3000	0.97978240740741
6	132	3000	0.97978240740741
6	132	3000	0.97972685185185
6	167	4000	0.97903240740741
6	167	4000	0.97900925925926
6	168	4000	0.97900925925926
6	168	4000	0.97900925925926
6	168	4000	0.97898611111111
6	203	5000	0.94768055555556
6	203	5000	0.94768055555556
6	203	5000	0.94701851851852
6	236	6000	0.91507407407407
6	236	6000	0.91505555555556
6	237	6000	0.91505555555556
6	237	6000	0.91505555555556
6	237	6000	0.91503703703704
6	272	7000	0.9057037037037
6	272	7000	0.9057037037037
6	272	7000	0.9052962962963
6	307	8000	0.89557407407407
6	307	8000	0.89556018518519
6	308	8000	0.89556018518519
6	308	8000	0.89556018518519
6	308	8000	0.8955462962963
6	341	9000	0.89489351851852
6	341	9000	0.89489351851852
6	341	9000	0.89483796296296
6	376	10000	0.8941712962963
6	376	10000	0.89412962962963
6	377	10000	0.89412962962963
6	377	10000	0.89410648148148
6	378	10000	0.89410648148148
6	378	10000	0.89410648148148
6	378	10000	0.89408333333333
6	383	10000	0.89402777777778
6	383	10000	0.89400462962963
6	419	11000	0.86268981481481
6	419	11000	0.86268981481481
6	419	11000	0.86202777777778
6	453	12000	0.83008333333333
6	453	12000	0.83006481481481
6	454	12000	0.83006481481481
6	454	12000	0.83006481481481
6	454	12000	0.8300462962963
6	489	13000	0.82071296296296
6	489	13000	0.82071296296296
6	489	13000	0.82030555555556
7	0	0	10800000
7	4	0	10799500
7	4	0	10799300
7	63	1000	10698400
7	63	1000	10698400
7	63	1000	10694000
7	98	2000	10589000
7	98	2000	10588850
7	99	2000	10588850
7	99	2000	10588850
7	99	2000	10588700
7	132	3000	10581650
7	132	3000	10581650
7	132	3000	10581050
7	167	4000	10573550
7	167	4000	10573300
7	168	4000	10573300
7	168	4000	10573300
7	168	4000	10573050
7	203	5000	10234950
7	203	5000	10234950
7	203	5000	10227800
7	236	6000	9882800
7	236	6000	9882600
7	237	6000	9882600
7	237	6000	9882600
7	237	6000	9882400
7	272	7000	9781600
7	272	7000	9781600
7	272	7000	9777200
7	307	8000	9672200
7	307	8000	9672050
7	308	8000	9672050
7	308	8000	9672050
7	308	8000	9671900
7	341	9000	9664850
7	341	9000	9664850
7	341	9000	9664250
7	376	10000	9657050
7	376	10000	9656600
7	377	10000	9656600
7	377	10000	9656350
7	378	10000	9656350
7	378	10000	9656350
7	378	10000	9656100
7	383	10000	9655500
7	383	10000	9655250
7	419	11000	9317050
7	419	11000	9317050
7	419	11000	9309900
7	453	12000	8964900
7	453	12000	8964700
7	454	12000	8964700
7	454	12000	8964700
7	454	12000	8964500
7	489	13000	8863700
7	489	13000	8863700
7	489	13000	8859300
8	0	0	100
8	0	0	100
8	0	0	100
8	379	10000	100
8	379	10000	100
8	379	10000	100
9	0	0	3
9	98	2000	0.3
9	167	4000	3
9	236	6000	3
9	307	8000	0.3
9	377	10000	3
9	453	12000	3
10	0	0	100
10	1	0	100
10	380	10000	100
11	0	0	3
11	98	2000	0.3
11	167	4000	3
11	236	6000	3
11	307	8000	0.3
11	377	10000	3
11	453	12000	3
12	0	0	100
12	2	0	100
12	381	10000	100
13	0	0	3
13	98	2000	0.3
13	167	4000	3
13	236	6000	3
13	307	8000	0.3
13	377	10000	3
13	453	12000	3
14	0	0	100
14	3	0	100
14	382	10000	100
15	0	0	3
15	98	2000	0.3
15	167	4000	3
15	236	6000	3
15	307	8000	0.3
15	377	10000	3
15	453	12000	3
16	0	0	100
16	5	0	100
16	384	10000	100
17	0	0	3
17	98	2000	0.3
17	167	4000	3
17	236	6000	3
17	307	8000	0.3
17	377	10000	3
17	453	12000	3
