version 2
run General-0-20150519-10:01:51-5141
attr configname General
attr datetime 20150519-10:01:51
attr experiment General
attr inifile omnetpp.ini
attr iterationvars ""
attr iterationvars2 $repetition=0
attr measurement ""
attr network SensorExample
attr processid 5141
attr repetition 0
attr replication #0
attr resultdir results
attr runnumber 0
attr seedset 0

vector 3  SensorExample.SensorNode.Processor  "power mode"  ETV
vector 4  SensorExample.SensorNode.Processor  "Sensor Modules Status"  ETV
vector 5  SensorExample.SensorNode.Processor  Voltage  ETV
vector 6  SensorExample.SensorNode.Processor  residualRelative  ETV
vector 7  SensorExample.SensorNode.Processor  residualAbs  ETV
vector 8  SensorExample.SensorNode.TemperatureSensor.SensingUnit  "Energy Consumptions"  ETV
vector 9  SensorExample.SensorNode.TemperatureSensor.SensingUnit  "Current use over time"  ETV
vector 10  SensorExample.SensorNode.TemperatureSensor.SignalConditioner  "Energy Consumptions"  ETV
vector 11  SensorExample.SensorNode.TemperatureSensor.SignalConditioner  "Current use over time"  ETV
vector 12  SensorExample.SensorNode.TemperatureSensor.SignalConverter  "Energy Consumptions"  ETV
vector 13  SensorExample.SensorNode.TemperatureSensor.SignalConverter  "Current use over time"  ETV
vector 14  SensorExample.SensorNode.TemperatureSensor.Transducer  "Energy Consumptions"  ETV
vector 15  SensorExample.SensorNode.TemperatureSensor.Transducer  "Current use over time"  ETV
vector 16  SensorExample.SensorNode.Memory  "Energy Consumptions"  ETV
vector 17  SensorExample.SensorNode.Memory  "Current use over time"  ETV
3	0	0	0
3	0	0	0
3	98	2000	1
3	167	4000	2
3	236	6000	0
3	236	6000	0
3	307	8000	1
3	377	10000	2
3	453	12000	0
3	453	12000	0
3	524	14000	1
3	593	16000	2
3	662	18000	0
3	662	18000	0
3	734	20000	1
3	809	22000	2
3	878	24000	0
3	878	24000	0
3	949	26000	1
3	1018	28000	2
3	1088	30000	0
3	1088	30000	0
3	1165	32000	1
3	1234	34000	2
3	1303	36000	0
3	1303	36000	0
3	1374	38000	1
3	1445	40000	2
3	1522	42000	0
3	1522	42000	0
3	1593	44000	1
3	1662	46000	2
3	1731	48000	0
3	1731	48000	0
3	1803	50000	1
3	1878	52000	2
3	1947	54000	0
3	1947	54000	0
3	2018	56000	1
3	2087	58000	2
3	2157	60000	0
3	2157	60000	0
3	2234	62000	1
3	2303	64000	2
3	2372	66000	0
3	2372	66000	0
3	2443	68000	1
3	2513	70000	2
4	0	0	0
4	4	0	0
4	376	10000	1
4	383	10000	0
4	733	20000	1
4	740	20000	0
4	1087	30000	1
4	1094	30000	0
4	1444	40000	1
4	1453	40000	0
4	1802	50000	1
4	1809	50000	0
4	2156	60000	1
4	2163	60000	0
4	2512	70000	1
4	2519	70000	0
5	0	0	3
5	4	0	3
5	4	0	3
5	63	1000	3
5	63	1000	3
5	63	1000	3
5	98	2000	3
5	98	2000	3
5	99	2000	3
5	99	2000	3
5	99	2000	3
5	132	3000	3
5	132	3000	3
5	132	3000	3
5	167	4000	3
5	167	4000	3
5	168	4000	3
5	168	4000	3
5	168	4000	3
5	203	5000	3
5	203	5000	3
5	203	5000	3
5	236	6000	3
5	236	6000	3
5	237	6000	3
5	237	6000	3
5	237	6000	3
5	272	7000	3
5	272	7000	3
5	272	7000	3
5	307	8000	3
5	307	8000	3
5	308	8000	3
5	308	8000	3
5	308	8000	3
5	341	9000	3
5	341	9000	3
5	341	9000	3
5	376	10000	3
5	376	10000	3
5	377	10000	3
5	377	10000	3
5	378	10000	3
5	378	10000	3
5	378	10000	3
5	383	10000	3
5	383	10000	3
5	419	11000	3
5	419	11000	3
5	419	11000	3
5	453	12000	3
5	453	12000	3
5	454	12000	3
5	454	12000	3
5	454	12000	3
5	489	13000	3
5	489	13000	3
5	489	13000	3
5	524	14000	3
5	524	14000	3
5	525	14000	3
5	525	14000	3
5	525	14000	3
5	558	15000	3
5	558	15000	3
5	558	15000	3
5	593	16000	3
5	593	16000	3
5	594	16000	3
5	594	16000	3
5	594	16000	3
5	629	17000	3
5	629	17000	3
5	629	17000	3
5	662	18000	3
5	662	18000	3
5	663	18000	3
5	663	18000	3
5	663	18000	3
5	698	19000	3
5	698	19000	3
5	698	19000	3
5	733	20000	3
5	733	20000	3
5	734	20000	3
5	734	20000	3
5	735	20000	3
5	735	20000	3
5	735	20000	3
5	740	20000	3
5	740	20000	3
5	774	21000	3
5	774	21000	3
5	774	21000	3
5	809	22000	3
5	809	22000	3
5	810	22000	3
5	810	22000	3
5	810	22000	3
5	845	23000	3
5	845	23000	3
5	845	23000	3
5	878	24000	3
5	878	24000	3
5	879	24000	3
5	879	24000	3
5	879	24000	3
5	914	25000	3
5	914	25000	3
5	914	25000	3
5	949	26000	3
5	949	26000	3
5	950	26000	3
5	950	26000	3
5	950	26000	3
5	983	27000	3
5	983	27000	3
5	983	27000	3
5	1018	28000	3
5	1018	28000	3
5	1019	28000	3
5	1019	28000	3
5	1019	28000	3
5	1054	29000	3
5	1054	29000	3
5	1054	29000	3
5	1087	30000	3
5	1087	30000	3
5	1088	30000	3
5	1088	30000	3
5	1089	30000	3
5	1089	30000	3
5	1089	30000	3
5	1094	30000	3
5	1094	30000	3
5	1130	31000	3
5	1130	31000	3
5	1130	31000	3
5	1165	32000	3
5	1165	32000	3
5	1166	32000	3
5	1166	32000	3
5	1166	32000	3
5	1199	33000	3
5	1199	33000	3
5	1199	33000	3
5	1234	34000	3
5	1234	34000	3
5	1235	34000	3
5	1235	34000	3
5	1235	34000	3
5	1270	35000	3
5	1270	35000	3
5	1270	35000	3
5	1303	36000	3
5	1303	36000	3
5	1304	36000	3
5	1304	36000	3
5	1304	36000	3
5	1339	37000	3
5	1339	37000	3
5	1339	37000	3
5	1374	38000	3
5	1374	38000	3
5	1375	38000	3
5	1375	38000	3
5	1375	38000	3
5	1408	39000	3
5	1408	39000	3
5	1408	39000	3
5	1443	40000	3
5	1443	40000	3
5	1444	40000	3
5	1444	40000	3
5	1445	40000	3
5	1445	40000	3
5	1446	40000	3
5	1446	40000	3
5	1446	40000	3
5	1449	40000	3
5	1449	40000	3
5	1453	40000	3
5	1453	40000	3
5	1489	41000	3
5	1489	41000	3
5	1489	41000	3
5	1522	42000	3
5	1522	42000	3
5	1523	42000	3
5	1523	42000	3
5	1523	42000	3
5	1558	43000	3
5	1558	43000	3
5	1558	43000	3
5	1593	44000	3
5	1593	44000	3
5	1594	44000	3
5	1594	44000	3
5	1594	44000	3
5	1627	45000	3
5	1627	45000	3
5	1627	45000	3
5	1662	46000	3
5	1662	46000	3
5	1663	46000	3
5	1663	46000	3
5	1663	46000	3
5	1698	47000	3
5	1698	47000	3
5	1698	47000	3
5	1731	48000	3
5	1731	48000	3
5	1732	48000	3
5	1732	48000	3
5	1732	48000	3
5	1767	49000	3
5	1767	49000	3
5	1767	49000	3
5	1802	50000	3
5	1802	50000	3
5	1803	50000	3
5	1803	50000	3
5	1804	50000	3
5	1804	50000	3
5	1804	50000	3
5	1809	50000	3
5	1809	50000	3
5	1843	51000	3
5	1843	51000	3
5	1843	51000	3
5	1878	52000	3
5	1878	52000	3
5	1879	52000	3
5	1879	52000	3
5	1879	52000	3
5	1914	53000	3
5	1914	53000	3
5	1914	53000	3
5	1947	54000	3
5	1947	54000	3
5	1948	54000	3
5	1948	54000	3
5	1948	54000	3
5	1983	55000	3
5	1983	55000	3
5	1983	55000	3
5	2018	56000	3
5	2018	56000	3
5	2019	56000	3
5	2019	56000	3
5	2019	56000	3
5	2052	57000	3
5	2052	57000	3
5	2052	57000	3
5	2087	58000	3
5	2087	58000	3
5	2088	58000	3
5	2088	58000	3
5	2088	58000	3
5	2123	59000	3
5	2123	59000	3
5	2123	59000	3
5	2156	60000	3
5	2156	60000	3
5	2157	60000	3
5	2157	60000	3
5	2158	60000	3
5	2158	60000	3
5	2158	60000	3
5	2163	60000	3
5	2163	60000	3
5	2199	61000	3
5	2199	61000	3
5	2199	61000	3
5	2234	62000	3
5	2234	62000	3
5	2235	62000	3
5	2235	62000	3
5	2235	62000	3
5	2268	63000	3
5	2268	63000	3
5	2268	63000	3
5	2303	64000	3
5	2303	64000	3
5	2304	64000	3
5	2304	64000	3
5	2304	64000	3
5	2339	65000	3
5	2339	65000	3
5	2339	65000	3
5	2372	66000	3
5	2372	66000	3
5	2373	66000	3
5	2373	66000	3
5	2373	66000	3
5	2408	67000	3
5	2408	67000	3
5	2408	67000	3
5	2443	68000	3
5	2443	68000	3
5	2444	68000	3
5	2444	68000	3
5	2444	68000	3
5	2477	69000	3
5	2477	69000	3
5	2477	69000	3
5	2512	70000	3
5	2512	70000	3
5	2513	70000	3
5	2513	70000	3
5	2514	70000	3
5	2514	70000	3
5	2514	70000	3
5	2519	70000	3
5	2519	70000	3
5	2555	71000	3
5	2555	71000	3
5	2555	71000	3
5	2713	80000	3
5	2713	80000	3
5	2715	80000	3
5	2715	80000	3
5	3382	120000	3
5	3382	120000	3
5	3384	120000	3
5	3384	120000	3
6	0	0	1
6	4	0	0.9999537037037
6	4	0	0.99993518518519
6	63	1000	0.99059259259259
6	63	1000	0.99059259259259
6	63	1000	0.99018518518519
6	98	2000	0.98046296296296
6	98	2000	0.98044907407407
6	99	2000	0.98044907407407
6	99	2000	0.98044907407407
6	99	2000	0.98043518518519
6	132	3000	0.97978240740741
6	132	3000	0.97978240740741
6	132	3000	0.97972685185185
6	167	4000	0.97903240740741
6	167	4000	0.97900925925926
6	168	4000	0.97900925925926
6	168	4000	0.97900925925926
6	168	4000	0.97898611111111
6	203	5000	0.94768055555556
6	203	5000	0.94768055555556
6	203	5000	0.94701851851852
6	236	6000	0.91507407407407
6	236	6000	0.91505555555556
6	237	6000	0.91505555555556
6	237	6000	0.91505555555556
6	237	6000	0.91503703703704
6	272	7000	0.9057037037037
6	272	7000	0.9057037037037
6	272	7000	0.9052962962963
6	307	8000	0.89557407407407
6	307	8000	0.89556018518519
6	308	8000	0.89556018518519
6	308	8000	0.89556018518519
6	308	8000	0.8955462962963
6	341	9000	0.89489351851852
6	341	9000	0.89489351851852
6	341	9000	0.89483796296296
6	376	10000	0.8941712962963
6	376	10000	0.89412962962963
6	377	10000	0.89412962962963
6	377	10000	0.89410648148148
6	378	10000	0.89410648148148
6	378	10000	0.89410648148148
6	378	10000	0.89408333333333
6	383	10000	0.89402777777778
6	383	10000	0.89400462962963
6	419	11000	0.86268981481481
6	419	11000	0.86268981481481
6	419	11000	0.86202777777778
6	453	12000	0.83008333333333
6	453	12000	0.83006481481481
6	454	12000	0.83006481481481
6	454	12000	0.83006481481481
6	454	12000	0.8300462962963
6	489	13000	0.82071296296296
6	489	13000	0.82071296296296
6	489	13000	0.82030555555556
6	524	14000	0.81058333333333
6	524	14000	0.81056944444444
6	525	14000	0.81056944444444
6	525	14000	0.81056944444444
6	525	14000	0.81055555555556
6	558	15000	0.80990277777778
6	558	15000	0.80990277777778
6	558	15000	0.80984722222222
6	593	16000	0.80915277777778
6	593	16000	0.80912962962963
6	594	16000	0.80912962962963
6	594	16000	0.80912962962963
6	594	16000	0.80910648148148
6	629	17000	0.77780092592593
6	629	17000	0.77780092592593
6	629	17000	0.77713888888889
6	662	18000	0.74519444444444
6	662	18000	0.74517592592593
6	663	18000	0.74517592592593
6	663	18000	0.74517592592593
6	663	18000	0.74515740740741
6	698	19000	0.73582407407407
6	698	19000	0.73582407407407
6	698	19000	0.73541666666667
6	733	20000	0.72588888888889
6	733	20000	0.72567592592593
6	734	20000	0.72567592592593
6	734	20000	0.72566203703704
6	735	20000	0.72566203703704
6	735	20000	0.72566203703704
6	735	20000	0.72564814814815
6	740	20000	0.72559259259259
6	740	20000	0.7255787037037
6	774	21000	0.72491666666667
6	774	21000	0.72491666666667
6	774	21000	0.72486111111111
6	809	22000	0.72416666666667
6	809	22000	0.72414351851852
6	810	22000	0.72414351851852
6	810	22000	0.72414351851852
6	810	22000	0.72412037037037
6	845	23000	0.69281481481481
6	845	23000	0.69281481481481
6	845	23000	0.69215277777778
6	878	24000	0.66020833333333
6	878	24000	0.66018981481481
6	879	24000	0.66018981481481
6	879	24000	0.66018981481481
6	879	24000	0.6601712962963
6	914	25000	0.65083796296296
6	914	25000	0.65083796296296
6	914	25000	0.65043055555556
6	949	26000	0.64070833333333
6	949	26000	0.64069444444444
6	950	26000	0.64069444444444
6	950	26000	0.64069444444444
6	950	26000	0.64068055555556
6	983	27000	0.64002777777778
6	983	27000	0.64002777777778
6	983	27000	0.63997222222222
6	1018	28000	0.63927777777778
6	1018	28000	0.63925462962963
6	1019	28000	0.63925462962963
6	1019	28000	0.63925462962963
6	1019	28000	0.63923148148148
6	1054	29000	0.60792592592593
6	1054	29000	0.60792592592593
6	1054	29000	0.60726388888889
6	1087	30000	0.57723611111111
6	1087	30000	0.5752962962963
6	1088	30000	0.5752962962963
6	1088	30000	0.57527777777778
6	1089	30000	0.57527777777778
6	1089	30000	0.57527777777778
6	1089	30000	0.57525925925926
6	1094	30000	0.5752037037037
6	1094	30000	0.57518518518519
6	1130	31000	0.56584259259259
6	1130	31000	0.56584259259259
6	1130	31000	0.56543518518519
6	1165	32000	0.55571296296296
6	1165	32000	0.55569907407407
6	1166	32000	0.55569907407407
6	1166	32000	0.55569907407407
6	1166	32000	0.55568518518519
6	1199	33000	0.55503240740741
6	1199	33000	0.55503240740741
6	1199	33000	0.55497685185185
6	1234	34000	0.55428240740741
6	1234	34000	0.55425925925926
6	1235	34000	0.55425925925926
6	1235	34000	0.55425925925926
6	1235	34000	0.55423611111111
6	1270	35000	0.52293055555556
6	1270	35000	0.52293055555556
6	1270	35000	0.52226851851852
6	1303	36000	0.49032407407407
6	1303	36000	0.49030555555556
6	1304	36000	0.49030555555556
6	1304	36000	0.49030555555556
6	1304	36000	0.49028703703704
6	1339	37000	0.4809537037037
6	1339	37000	0.4809537037037
6	1339	37000	0.4805462962963
6	1374	38000	0.47082407407407
6	1374	38000	0.47081018518519
6	1375	38000	0.47081018518519
6	1375	38000	0.47081018518519
6	1375	38000	0.4707962962963
6	1408	39000	0.47014351851852
6	1408	39000	0.47014351851852
6	1408	39000	0.47008796296296
6	1443	40000	0.4694212962963
6	1443	40000	0.46937962962963
6	1444	40000	0.46937962962963
6	1444	40000	0.46936574074074
6	1445	40000	0.46936574074074
6	1445	40000	0.46934259259259
6	1446	40000	0.46934259259259
6	1446	40000	0.46934259259259
6	1446	40000	0.46931944444444
6	1449	40000	0.46928240740741
6	1449	40000	0.46925925925926
6	1453	40000	0.46923148148148
6	1453	40000	0.46920833333333
6	1489	41000	0.43789351851852
6	1489	41000	0.43789351851852
6	1489	41000	0.43723148148148
6	1522	42000	0.40528703703704
6	1522	42000	0.40526851851852
6	1523	42000	0.40526851851852
6	1523	42000	0.40526851851852
6	1523	42000	0.40525
6	1558	43000	0.39591666666667
6	1558	43000	0.39591666666667
6	1558	43000	0.39550925925926
6	1593	44000	0.38578703703704
6	1593	44000	0.38577314814815
6	1594	44000	0.38577314814815
6	1594	44000	0.38577314814815
6	1594	44000	0.38575925925926
6	1627	45000	0.38510648148148
6	1627	45000	0.38510648148148
6	1627	45000	0.38505092592593
6	1662	46000	0.38435648148148
6	1662	46000	0.38433333333333
6	1663	46000	0.38433333333333
6	1663	46000	0.38433333333333
6	1663	46000	0.38431018518519
6	1698	47000	0.35300462962963
6	1698	47000	0.35300462962963
6	1698	47000	0.35234259259259
6	1731	48000	0.32039814814815
6	1731	48000	0.32037962962963
6	1732	48000	0.32037962962963
6	1732	48000	0.32037962962963
6	1732	48000	0.32036111111111
6	1767	49000	0.31102777777778
6	1767	49000	0.31102777777778
6	1767	49000	0.31062037037037
6	1802	50000	0.30109259259259
6	1802	50000	0.30087962962963
6	1803	50000	0.30087962962963
6	1803	50000	0.30086574074074
6	1804	50000	0.30086574074074
6	1804	50000	0.30086574074074
6	1804	50000	0.30085185185185
6	1809	50000	0.3007962962963
6	1809	50000	0.30078240740741
6	1843	51000	0.30012037037037
6	1843	51000	0.30012037037037
6	1843	51000	0.30006481481481
6	1878	52000	0.29937037037037
6	1878	52000	0.29934722222222
6	1879	52000	0.29934722222222
6	1879	52000	0.29934722222222
6	1879	52000	0.29932407407407
6	1914	53000	0.26801851851852
6	1914	53000	0.26801851851852
6	1914	53000	0.26735648148148
6	1947	54000	0.23541203703704
6	1947	54000	0.23539351851852
6	1948	54000	0.23539351851852
6	1948	54000	0.23539351851852
6	1948	54000	0.235375
6	1983	55000	0.22604166666667
6	1983	55000	0.22604166666667
6	1983	55000	0.22563425925926
6	2018	56000	0.21591203703704
6	2018	56000	0.21589814814815
6	2019	56000	0.21589814814815
6	2019	56000	0.21589814814815
6	2019	56000	0.21588425925926
6	2052	57000	0.21523148148148
6	2052	57000	0.21523148148148
6	2052	57000	0.21517592592593
6	2087	58000	0.21448148148148
6	2087	58000	0.21445833333333
6	2088	58000	0.21445833333333
6	2088	58000	0.21445833333333
6	2088	58000	0.21443518518519
6	2123	59000	0.18312962962963
6	2123	59000	0.18312962962963
6	2123	59000	0.18246759259259
6	2156	60000	0.15243981481481
6	2156	60000	0.1505
6	2157	60000	0.1505
6	2157	60000	0.15048148148148
6	2158	60000	0.15048148148148
6	2158	60000	0.15048148148148
6	2158	60000	0.15046296296296
6	2163	60000	0.15040740740741
6	2163	60000	0.15038888888889
6	2199	61000	0.1410462962963
6	2199	61000	0.1410462962963
6	2199	61000	0.14063888888889
6	2234	62000	0.13091666666667
6	2234	62000	0.13090277777778
6	2235	62000	0.13090277777778
6	2235	62000	0.13090277777778
6	2235	62000	0.13088888888889
6	2268	63000	0.13023611111111
6	2268	63000	0.13023611111111
6	2268	63000	0.13018055555556
6	2303	64000	0.12948611111111
6	2303	64000	0.12946296296296
6	2304	64000	0.12946296296296
6	2304	64000	0.12946296296296
6	2304	64000	0.12943981481481
6	2339	65000	0.098134259259259
6	2339	65000	0.098134259259259
6	2339	65000	0.097472222222222
6	2372	66000	0.065527777777778
6	2372	66000	0.065509259259259
6	2373	66000	0.065509259259259
6	2373	66000	0.065509259259259
6	2373	66000	0.065490740740741
6	2408	67000	0.056157407407407
6	2408	67000	0.056157407407407
6	2408	67000	0.05575
6	2443	68000	0.046027777777778
6	2443	68000	0.046013888888889
6	2444	68000	0.046013888888889
6	2444	68000	0.046013888888889
6	2444	68000	0.046
6	2477	69000	0.045347222222222
6	2477	69000	0.045347222222222
6	2477	69000	0.045291666666667
6	2512	70000	0.044625
6	2512	70000	0.044583333333333
6	2513	70000	0.044583333333333
6	2513	70000	0.044560185185185
6	2514	70000	0.044560185185185
6	2514	70000	0.044560185185185
6	2514	70000	0.044537037037037
6	2519	70000	0.044481481481481
6	2519	70000	0.044458333333333
6	2555	71000	0.013143518518519
6	2555	71000	0.013143518518519
6	2555	71000	0.012481481481481
6	2713	80000	0
6	2713	80000	0
6	2715	80000	0
6	2715	80000	0
6	3382	120000	0
6	3382	120000	0
6	3384	120000	0
6	3384	120000	0
7	0	0	10800000
7	4	0	10799500
7	4	0	10799300
7	63	1000	10698400
7	63	1000	10698400
7	63	1000	10694000
7	98	2000	10589000
7	98	2000	10588850
7	99	2000	10588850
7	99	2000	10588850
7	99	2000	10588700
7	132	3000	10581650
7	132	3000	10581650
7	132	3000	10581050
7	167	4000	10573550
7	167	4000	10573300
7	168	4000	10573300
7	168	4000	10573300
7	168	4000	10573050
7	203	5000	10234950
7	203	5000	10234950
7	203	5000	10227800
7	236	6000	9882800
7	236	6000	9882600
7	237	6000	9882600
7	237	6000	9882600
7	237	6000	9882400
7	272	7000	9781600
7	272	7000	9781600
7	272	7000	9777200
7	307	8000	9672200
7	307	8000	9672050
7	308	8000	9672050
7	308	8000	9672050
7	308	8000	9671900
7	341	9000	9664850
7	341	9000	9664850
7	341	9000	9664250
7	376	10000	9657050
7	376	10000	9656600
7	377	10000	9656600
7	377	10000	9656350
7	378	10000	9656350
7	378	10000	9656350
7	378	10000	9656100
7	383	10000	9655500
7	383	10000	9655250
7	419	11000	9317050
7	419	11000	9317050
7	419	11000	9309900
7	453	12000	8964900
7	453	12000	8964700
7	454	12000	8964700
7	454	12000	8964700
7	454	12000	8964500
7	489	13000	8863700
7	489	13000	8863700
7	489	13000	8859300
7	524	14000	8754300
7	524	14000	8754150
7	525	14000	8754150
7	525	14000	8754150
7	525	14000	8754000
7	558	15000	8746950
7	558	15000	8746950
7	558	15000	8746350
7	593	16000	8738850
7	593	16000	8738600
7	594	16000	8738600
7	594	16000	8738600
7	594	16000	8738350
7	629	17000	8400250
7	629	17000	8400250
7	629	17000	8393100
7	662	18000	8048100
7	662	18000	8047900
7	663	18000	8047900
7	663	18000	8047900
7	663	18000	8047700
7	698	19000	7946900
7	698	19000	7946900
7	698	19000	7942500
7	733	20000	7839600
7	733	20000	7837300
7	734	20000	7837300
7	734	20000	7837150
7	735	20000	7837150
7	735	20000	7837150
7	735	20000	7837000
7	740	20000	7836400
7	740	20000	7836250
7	774	21000	7829100
7	774	21000	7829100
7	774	21000	7828500
7	809	22000	7821000
7	809	22000	7820750
7	810	22000	7820750
7	810	22000	7820750
7	810	22000	7820500
7	845	23000	7482400
7	845	23000	7482400
7	845	23000	7475250
7	878	24000	7130250
7	878	24000	7130050
7	879	24000	7130050
7	879	24000	7130050
7	879	24000	7129850
7	914	25000	7029050
7	914	25000	7029050
7	914	25000	7024650
7	949	26000	6919650
7	949	26000	6919500
7	950	26000	6919500
7	950	26000	6919500
7	950	26000	6919350
7	983	27000	6912300
7	983	27000	6912300
7	983	27000	6911700
7	1018	28000	6904200
7	1018	28000	6903950
7	1019	28000	6903950
7	1019	28000	6903950
7	1019	28000	6903700
7	1054	29000	6565600
7	1054	29000	6565600
7	1054	29000	6558450
7	1087	30000	6234150
7	1087	30000	6213200
7	1088	30000	6213200
7	1088	30000	6213000
7	1089	30000	6213000
7	1089	30000	6213000
7	1089	30000	6212800
7	1094	30000	6212200
7	1094	30000	6212000
7	1130	31000	6111100
7	1130	31000	6111100
7	1130	31000	6106700
7	1165	32000	6001700
7	1165	32000	6001550
7	1166	32000	6001550
7	1166	32000	6001550
7	1166	32000	6001400
7	1199	33000	5994350
7	1199	33000	5994350
7	1199	33000	5993750
7	1234	34000	5986250
7	1234	34000	5986000
7	1235	34000	5986000
7	1235	34000	5986000
7	1235	34000	5985750
7	1270	35000	5647650
7	1270	35000	5647650
7	1270	35000	5640500
7	1303	36000	5295500
7	1303	36000	5295300
7	1304	36000	5295300
7	1304	36000	5295300
7	1304	36000	5295100
7	1339	37000	5194300
7	1339	37000	5194300
7	1339	37000	5189900
7	1374	38000	5084900
7	1374	38000	5084750
7	1375	38000	5084750
7	1375	38000	5084750
7	1375	38000	5084600
7	1408	39000	5077550
7	1408	39000	5077550
7	1408	39000	5076950
7	1443	40000	5069750
7	1443	40000	5069300
7	1444	40000	5069300
7	1444	40000	5069150
7	1445	40000	5069150
7	1445	40000	5068900
7	1446	40000	5068900
7	1446	40000	5068900
7	1446	40000	5068650
7	1449	40000	5068250
7	1449	40000	5068000
7	1453	40000	5067700
7	1453	40000	5067450
7	1489	41000	4729250
7	1489	41000	4729250
7	1489	41000	4722100
7	1522	42000	4377100
7	1522	42000	4376900
7	1523	42000	4376900
7	1523	42000	4376900
7	1523	42000	4376700
7	1558	43000	4275900
7	1558	43000	4275900
7	1558	43000	4271500
7	1593	44000	4166500
7	1593	44000	4166350
7	1594	44000	4166350
7	1594	44000	4166350
7	1594	44000	4166200
7	1627	45000	4159150
7	1627	45000	4159150
7	1627	45000	4158550
7	1662	46000	4151050
7	1662	46000	4150800
7	1663	46000	4150800
7	1663	46000	4150800
7	1663	46000	4150550
7	1698	47000	3812450
7	1698	47000	3812450
7	1698	47000	3805300
7	1731	48000	3460300
7	1731	48000	3460100
7	1732	48000	3460100
7	1732	48000	3460100
7	1732	48000	3459900
7	1767	49000	3359100
7	1767	49000	3359100
7	1767	49000	3354700
7	1802	50000	3251800
7	1802	50000	3249500
7	1803	50000	3249500
7	1803	50000	3249350
7	1804	50000	3249350
7	1804	50000	3249350
7	1804	50000	3249200
7	1809	50000	3248600
7	1809	50000	3248450
7	1843	51000	3241300
7	1843	51000	3241300
7	1843	51000	3240700
7	1878	52000	3233200
7	1878	52000	3232950
7	1879	52000	3232950
7	1879	52000	3232950
7	1879	52000	3232700
7	1914	53000	2894600
7	1914	53000	2894600
7	1914	53000	2887450
7	1947	54000	2542450
7	1947	54000	2542250
7	1948	54000	2542250
7	1948	54000	2542250
7	1948	54000	2542050
7	1983	55000	2441250
7	1983	55000	2441250
7	1983	55000	2436850
7	2018	56000	2331850
7	2018	56000	2331700
7	2019	56000	2331700
7	2019	56000	2331700
7	2019	56000	2331550
7	2052	57000	2324500
7	2052	57000	2324500
7	2052	57000	2323900
7	2087	58000	2316400
7	2087	58000	2316150
7	2088	58000	2316150
7	2088	58000	2316150
7	2088	58000	2315900
7	2123	59000	1977800
7	2123	59000	1977800
7	2123	59000	1970650
7	2156	60000	1646350
7	2156	60000	1625400
7	2157	60000	1625400
7	2157	60000	1625200
7	2158	60000	1625200
7	2158	60000	1625200
7	2158	60000	1625000
7	2163	60000	1624400
7	2163	60000	1624200
7	2199	61000	1523300
7	2199	61000	1523300
7	2199	61000	1518900
7	2234	62000	1413900
7	2234	62000	1413750
7	2235	62000	1413750
7	2235	62000	1413750
7	2235	62000	1413600
7	2268	63000	1406550
7	2268	63000	1406550
7	2268	63000	1405950
7	2303	64000	1398450
7	2303	64000	1398200
7	2304	64000	1398200
7	2304	64000	1398200
7	2304	64000	1397950
7	2339	65000	1059850
7	2339	65000	1059850
7	2339	65000	1052700
7	2372	66000	707700
7	2372	66000	707500
7	2373	66000	707500
7	2373	66000	707500
7	2373	66000	707300
7	2408	67000	606500
7	2408	67000	606500
7	2408	67000	602100
7	2443	68000	497100
7	2443	68000	496950
7	2444	68000	496950
7	2444	68000	496950
7	2444	68000	496800
7	2477	69000	489750
7	2477	69000	489750
7	2477	69000	489150
7	2512	70000	481950
7	2512	70000	481500
7	2513	70000	481500
7	2513	70000	481250
7	2514	70000	481250
7	2514	70000	481250
7	2514	70000	481000
7	2519	70000	480400
7	2519	70000	480150
7	2555	71000	141950
7	2555	71000	141950
7	2555	71000	134800
7	2713	80000	0
7	2713	80000	0
7	2715	80000	0
7	2715	80000	0
7	3382	120000	0
7	3382	120000	0
7	3384	120000	0
7	3384	120000	0
8	0	0	100
8	0	0	100
8	0	0	100
8	379	10000	100
8	379	10000	100
8	379	10000	100
8	736	20000	100
8	736	20000	100
8	736	20000	100
8	1090	30000	100
8	1090	30000	100
8	1090	30000	100
8	1448	40000	100
8	1448	40000	100
8	1448	40000	100
8	1805	50000	100
8	1805	50000	100
8	1805	50000	100
8	2159	60000	100
8	2159	60000	100
8	2159	60000	100
8	2515	70000	100
8	2515	70000	100
8	2515	70000	100
9	0	0	3
9	98	2000	0.3
9	167	4000	3
9	236	6000	3
9	307	8000	0.3
9	377	10000	3
9	453	12000	3
9	524	14000	0.3
9	593	16000	3
9	662	18000	3
9	734	20000	0.3
9	809	22000	3
9	878	24000	3
9	949	26000	0.3
9	1018	28000	3
9	1088	30000	3
9	1165	32000	0.3
9	1234	34000	3
9	1303	36000	3
9	1374	38000	0.3
9	1445	40000	3
9	1522	42000	3
9	1593	44000	0.3
9	1662	46000	3
9	1731	48000	3
9	1803	50000	0.3
9	1878	52000	3
9	1947	54000	3
9	2018	56000	0.3
9	2087	58000	3
9	2157	60000	3
9	2234	62000	0.3
9	2303	64000	3
9	2372	66000	3
9	2443	68000	0.3
9	2513	70000	3
10	0	0	100
10	1	0	100
10	380	10000	100
10	737	20000	100
10	1091	30000	100
10	1450	40000	100
10	1806	50000	100
10	2160	60000	100
10	2516	70000	100
11	0	0	3
11	98	2000	0.3
11	167	4000	3
11	236	6000	3
11	307	8000	0.3
11	377	10000	3
11	453	12000	3
11	524	14000	0.3
11	593	16000	3
11	662	18000	3
11	734	20000	0.3
11	809	22000	3
11	878	24000	3
11	949	26000	0.3
11	1018	28000	3
11	1088	30000	3
11	1165	32000	0.3
11	1234	34000	3
11	1303	36000	3
11	1374	38000	0.3
11	1445	40000	3
11	1522	42000	3
11	1593	44000	0.3
11	1662	46000	3
11	1731	48000	3
11	1803	50000	0.3
11	1878	52000	3
11	1947	54000	3
11	2018	56000	0.3
11	2087	58000	3
11	2157	60000	3
11	2234	62000	0.3
11	2303	64000	3
11	2372	66000	3
11	2443	68000	0.3
11	2513	70000	3
12	0	0	100
12	2	0	100
12	381	10000	100
12	738	20000	100
12	1092	30000	100
12	1451	40000	100
12	1807	50000	100
12	2161	60000	100
12	2517	70000	100
13	0	0	3
13	98	2000	0.3
13	167	4000	3
13	236	6000	3
13	307	8000	0.3
13	377	10000	3
13	453	12000	3
13	524	14000	0.3
13	593	16000	3
13	662	18000	3
13	734	20000	0.3
13	809	22000	3
13	878	24000	3
13	949	26000	0.3
13	1018	28000	3
13	1088	30000	3
13	1165	32000	0.3
13	1234	34000	3
13	1303	36000	3
13	1374	38000	0.3
13	1445	40000	3
13	1522	42000	3
13	1593	44000	0.3
13	1662	46000	3
13	1731	48000	3
13	1803	50000	0.3
13	1878	52000	3
13	1947	54000	3
13	2018	56000	0.3
13	2087	58000	3
13	2157	60000	3
13	2234	62000	0.3
13	2303	64000	3
13	2372	66000	3
13	2443	68000	0.3
13	2513	70000	3
14	0	0	100
14	3	0	100
14	382	10000	100
14	739	20000	100
14	1093	30000	100
14	1452	40000	100
14	1808	50000	100
14	2162	60000	100
14	2518	70000	100
15	0	0	3
15	98	2000	0.3
15	167	4000	3
15	236	6000	3
15	307	8000	0.3
15	377	10000	3
15	453	12000	3
15	524	14000	0.3
15	593	16000	3
15	662	18000	3
15	734	20000	0.3
15	809	22000	3
15	878	24000	3
15	949	26000	0.3
15	1018	28000	3
15	1088	30000	3
15	1165	32000	0.3
15	1234	34000	3
15	1303	36000	3
15	1374	38000	0.3
15	1445	40000	3
15	1522	42000	3
15	1593	44000	0.3
15	1662	46000	3
15	1731	48000	3
15	1803	50000	0.3
15	1878	52000	3
15	1947	54000	3
15	2018	56000	0.3
15	2087	58000	3
15	2157	60000	3
15	2234	62000	0.3
15	2303	64000	3
15	2372	66000	3
15	2443	68000	0.3
15	2513	70000	3
16	0	0	100
16	5	0	100
16	384	10000	100
16	741	20000	100
16	1095	30000	100
16	1447	40000	100
16	1454	40000	100
16	1810	50000	100
16	2164	60000	100
16	2520	70000	100
16	2714	80000	100
16	3383	120000	100
17	0	0	3
17	98	2000	0.3
17	167	4000	3
17	236	6000	3
17	307	8000	0.3
17	377	10000	3
17	453	12000	3
17	524	14000	0.3
17	593	16000	3
17	662	18000	3
17	734	20000	0.3
17	809	22000	3
17	878	24000	3
17	949	26000	0.3
17	1018	28000	3
17	1088	30000	3
17	1165	32000	0.3
17	1234	34000	3
17	1303	36000	3
17	1374	38000	0.3
17	1445	40000	3
17	1522	42000	3
17	1593	44000	0.3
17	1662	46000	3
17	1731	48000	3
17	1803	50000	0.3
17	1878	52000	3
17	1947	54000	3
17	2018	56000	0.3
17	2087	58000	3
17	2157	60000	3
17	2234	62000	0.3
17	2303	64000	3
17	2372	66000	3
17	2443	68000	0.3
17	2513	70000	3
