version 2
run General-0-20150519-15:39:42-6944
attr configname General
attr datetime 20150519-15:39:42
attr experiment General
attr inifile omnetpp.ini
attr iterationvars ""
attr iterationvars2 $repetition=0
attr measurement ""
attr network SensorExample
attr processid 6944
attr repetition 0
attr replication #0
attr resultdir results
attr runnumber 0
attr seedset 0

vector 3  SensorExample.SensorNode.Processor  "power mode"  ETV
vector 4  SensorExample.SensorNode.Processor  "Sensor Modules Status"  ETV
vector 5  SensorExample.SensorNode.Processor  Voltage  ETV
vector 6  SensorExample.SensorNode.Processor  residualRelative  ETV
vector 7  SensorExample.SensorNode.Processor  residualAbs  ETV
vector 8  SensorExample.SensorNode.TemperatureSensor.SensingUnit  "Energy Consumptions"  ETV
vector 9  SensorExample.SensorNode.TemperatureSensor.SensingUnit  "Current use over time"  ETV
vector 10  SensorExample.SensorNode.TemperatureSensor.SignalConditioner  "Energy Consumptions"  ETV
vector 11  SensorExample.SensorNode.TemperatureSensor.SignalConditioner  "Current use over time"  ETV
vector 12  SensorExample.SensorNode.TemperatureSensor.SignalConverter  "Energy Consumptions"  ETV
vector 13  SensorExample.SensorNode.TemperatureSensor.SignalConverter  "Current use over time"  ETV
vector 14  SensorExample.SensorNode.TemperatureSensor.Transducer  "Energy Consumptions"  ETV
vector 15  SensorExample.SensorNode.TemperatureSensor.Transducer  "Current use over time"  ETV
vector 16  SensorExample.SensorNode.Memory  "Energy Consumptions"  ETV
vector 17  SensorExample.SensorNode.Memory  "Current use over time"  ETV
3	0	0	0
3	0	0	0
3	130	3000	1
3	233	6000	2
3	336	9000	0
3	336	9000	0
3	446	12000	1
3	549	15000	2
3	652	18000	0
3	652	18000	0
3	762	21000	1
3	865	24000	2
3	968	27000	0
3	968	27000	0
3	1072	30000	1
3	1181	33000	2
3	1287	36000	0
3	1287	36000	0
3	1390	39000	1
3	1500	42000	2
3	1603	45000	0
3	1603	45000	0
3	1706	48000	1
3	1815	51000	2
3	1919	54000	0
3	1919	54000	0
3	2022	57000	1
3	2126	60000	2
3	2235	63000	0
3	2235	63000	0
3	2338	66000	1
3	2444	69000	2
4	0	0	0
4	4	0	0
4	371	10000	1
4	376	10000	0
4	722	20000	1
4	727	20000	0
4	1071	30000	1
4	1077	30000	0
4	1426	40000	1
4	1431	40000	0
4	1776	50000	1
4	1781	50000	0
4	2125	60000	1
4	2131	60000	0
5	0	0	3
5	4	0	3
5	4	0	3
5	87	1700	3
5	87	1700	3
5	87	1700	3
5	130	3000	3
5	130	3000	3
5	145	3400	3
5	145	3400	3
5	145	3400	3
5	202	5100	3
5	202	5100	3
5	202	5100	3
5	233	6000	3
5	233	6000	3
5	262	6800	3
5	262	6800	3
5	262	6800	3
5	319	8500	3
5	319	8500	3
5	319	8500	3
5	336	9000	3
5	336	9000	3
5	371	10000	3
5	371	10000	3
5	376	10000	3
5	376	10000	3
5	384	10200	3
5	384	10200	3
5	384	10200	3
5	443	11900	3
5	443	11900	3
5	443	11900	3
5	446	12000	3
5	446	12000	3
5	502	13600	3
5	502	13600	3
5	502	13600	3
5	549	15000	3
5	549	15000	3
5	560	15300	3
5	560	15300	3
5	560	15300	3
5	619	17000	3
5	619	17000	3
5	619	17000	3
5	652	18000	3
5	652	18000	3
5	677	18700	3
5	677	18700	3
5	677	18700	3
5	722	20000	3
5	722	20000	3
5	727	20000	3
5	727	20000	3
5	741	20400	3
5	741	20400	3
5	741	20400	3
5	762	21000	3
5	762	21000	3
5	801	22100	3
5	801	22100	3
5	801	22100	3
5	858	23800	3
5	858	23800	3
5	858	23800	3
5	865	24000	3
5	865	24000	3
5	916	25500	3
5	916	25500	3
5	916	25500	3
5	968	27000	3
5	968	27000	3
5	977	27200	3
5	977	27200	3
5	977	27200	3
5	1034	28900	3
5	1034	28900	3
5	1034	28900	3
5	1071	30000	3
5	1071	30000	3
5	1072	30000	3
5	1072	30000	3
5	1077	30000	3
5	1077	30000	3
5	1099	30600	3
5	1099	30600	3
5	1099	30600	3
5	1158	32300	3
5	1158	32300	3
5	1158	32300	3
5	1181	33000	3
5	1181	33000	3
5	1216	34000	3
5	1216	34000	3
5	1217	34000	3
5	1217	34000	3
5	1217	34000	3
5	1219	34000	3
5	1219	34000	3
5	1276	35700	3
5	1276	35700	3
5	1276	35700	3
5	1287	36000	3
5	1287	36000	3
5	1336	37400	3
5	1336	37400	3
5	1336	37400	3
5	1390	39000	3
5	1390	39000	3
5	1395	39100	3
5	1395	39100	3
5	1395	39100	3
5	1426	40000	3
5	1426	40000	3
5	1431	40000	3
5	1431	40000	3
5	1459	40800	3
5	1459	40800	3
5	1459	40800	3
5	1500	42000	3
5	1500	42000	3
5	1519	42500	3
5	1519	42500	3
5	1519	42500	3
5	1576	44200	3
5	1576	44200	3
5	1576	44200	3
5	1603	45000	3
5	1603	45000	3
5	1634	45900	3
5	1634	45900	3
5	1634	45900	3
5	1693	47600	3
5	1693	47600	3
5	1693	47600	3
5	1706	48000	3
5	1706	48000	3
5	1751	49300	3
5	1751	49300	3
5	1751	49300	3
5	1776	50000	3
5	1776	50000	3
5	1781	50000	3
5	1781	50000	3
5	1815	51000	3
5	1815	51000	3
5	1816	51000	3
5	1816	51000	3
5	1816	51000	3
5	1876	52700	3
5	1876	52700	3
5	1876	52700	3
5	1919	54000	3
5	1919	54000	3
5	1934	54400	3
5	1934	54400	3
5	1934	54400	3
5	1991	56100	3
5	1991	56100	3
5	1991	56100	3
5	2022	57000	3
5	2022	57000	3
5	2051	57800	3
5	2051	57800	3
5	2051	57800	3
5	2108	59500	3
5	2108	59500	3
5	2108	59500	3
5	2125	60000	3
5	2125	60000	3
5	2126	60000	3
5	2126	60000	3
5	2131	60000	3
5	2131	60000	3
5	2173	61200	3
5	2173	61200	3
5	2173	61200	3
5	2232	62900	3
5	2232	62900	3
5	2232	62900	3
5	2235	63000	3
5	2235	63000	3
5	2290	64600	3
5	2290	64600	3
5	2290	64600	3
5	2338	66000	3
5	2338	66000	3
5	2349	66300	3
5	2349	66300	3
5	2349	66300	3
5	2408	68000	3
5	2408	68000	3
5	2409	68000	3
5	2409	68000	3
5	2409	68000	3
5	2411	68000	3
5	2411	68000	3
5	2444	69000	3
5	2444	69000	3
5	2469	69700	3
5	2469	69700	3
5	2469	69700	3
6	0	0	1
6	4	0	0.9999537037037
6	4	0	0.99993518518519
6	87	1700	0.98359259259259
6	87	1700	0.98359259259259
6	87	1700	0.98337962962963
6	130	3000	0.97074074074074
6	130	3000	0.97072685185185
6	145	3400	0.97047685185185
6	145	3400	0.97047685185185
6	145	3400	0.97043518518519
6	202	5100	0.9692962962963
6	202	5100	0.9692962962963
6	202	5100	0.96924074074074
6	233	6000	0.96861574074074
6	233	6000	0.96859259259259
6	262	6800	0.94367592592593
6	262	6800	0.94367592592593
6	262	6800	0.94301388888889
6	319	8500	0.88998611111111
6	319	8500	0.88998611111111
6	319	8500	0.88868518518519
6	336	9000	0.87271296296296
6	336	9000	0.87269444444444
6	371	10000	0.86336111111111
6	371	10000	0.8629537037037
6	376	10000	0.86289814814815
6	376	10000	0.86287962962963
6	384	10200	0.86150925925926
6	384	10200	0.86150925925926
6	384	10200	0.86090740740741
6	443	11900	0.84457407407407
6	443	11900	0.84457407407407
6	443	11900	0.84436111111111
6	446	12000	0.84338888888889
6	446	12000	0.843375
6	502	13600	0.84229166666667
6	502	13600	0.84229166666667
6	502	13600	0.84225
6	549	15000	0.84127777777778
6	549	15000	0.84125462962963
6	560	15300	0.83358796296296
6	560	15300	0.83358796296296
6	560	15300	0.83164814814815
6	619	17000	0.77798148148148
6	619	17000	0.77798148148148
6	619	17000	0.77731944444444
6	652	18000	0.745375
6	652	18000	0.74535648148148
6	677	18700	0.73893981481481
6	677	18700	0.73893981481481
6	677	18700	0.73853240740741
6	722	20000	0.72608796296296
6	722	20000	0.725875
6	727	20000	0.72581944444444
6	727	20000	0.72580092592593
6	741	20400	0.72248611111111
6	741	20400	0.72248611111111
6	741	20400	0.72188425925926
6	762	21000	0.71605092592593
6	762	21000	0.71603703703704
6	801	22100	0.71528703703704
6	801	22100	0.71528703703704
6	801	22100	0.71525925925926
6	858	23800	0.71410648148148
6	858	23800	0.71410648148148
6	858	23800	0.71406481481481
6	865	24000	0.71392592592593
6	865	24000	0.71390277777778
6	916	25500	0.66790277777778
6	916	25500	0.66790277777778
6	916	25500	0.66596296296296
6	968	27000	0.6180462962963
6	968	27000	0.61802777777778
6	977	27200	0.61627777777778
6	977	27200	0.61627777777778
6	977	27200	0.61606481481481
6	1034	28900	0.59992592592593
6	1034	28900	0.59992592592593
6	1034	28900	0.59951851851852
6	1071	30000	0.58940740740741
6	1071	30000	0.58880555555556
6	1072	30000	0.58880555555556
6	1072	30000	0.58879166666667
6	1077	30000	0.58873611111111
6	1077	30000	0.58872222222222
6	1099	30600	0.58833796296296
6	1099	30600	0.58833796296296
6	1099	30600	0.58828240740741
6	1158	32300	0.58711574074074
6	1158	32300	0.58711574074074
6	1158	32300	0.58708796296296
6	1181	33000	0.58660185185185
6	1181	33000	0.5865787037037
6	1216	34000	0.55591203703704
6	1216	34000	0.55461111111111
6	1217	34000	0.55461111111111
6	1217	34000	0.55461111111111
6	1217	34000	0.55458796296296
6	1219	34000	0.5545787037037
6	1219	34000	0.55455555555556
6	1276	35700	0.50216666666667
6	1276	35700	0.50216666666667
6	1276	35700	0.50022685185185
6	1287	36000	0.49064351851852
6	1287	36000	0.490625
6	1336	37400	0.47720833333333
6	1336	37400	0.47720833333333
6	1336	37400	0.47699537037037
6	1390	39000	0.46143981481481
6	1390	39000	0.46142592592593
6	1395	39100	0.46138425925926
6	1395	39100	0.46138425925926
6	1395	39100	0.46134259259259
6	1426	40000	0.46074537037037
6	1426	40000	0.4607037037037
6	1431	40000	0.46064814814815
6	1431	40000	0.46063425925926
6	1459	40800	0.46011111111111
6	1459	40800	0.46011111111111
6	1459	40800	0.46005555555556
6	1500	42000	0.45922222222222
6	1500	42000	0.45919907407407
6	1519	42500	0.44386574074074
6	1519	42500	0.44386574074074
6	1519	42500	0.4432037037037
6	1576	44200	0.39017592592593
6	1576	44200	0.39017592592593
6	1576	44200	0.388875
6	1603	45000	0.36331944444444
6	1603	45000	0.36330092592593
6	1634	45900	0.35513425925926
6	1634	45900	0.35513425925926
6	1634	45900	0.35453240740741
6	1693	47600	0.33819907407407
6	1693	47600	0.33819907407407
6	1693	47600	0.33798611111111
6	1706	48000	0.33409722222222
6	1706	48000	0.33408333333333
6	1751	49300	0.33320833333333
6	1751	49300	0.33320833333333
6	1751	49300	0.33316666666667
6	1776	50000	0.33269444444444
6	1776	50000	0.33266666666667
6	1781	50000	0.33261111111111
6	1781	50000	0.33259722222222
6	1815	51000	0.33189351851852
6	1815	51000	0.33187037037037
6	1816	51000	0.33187037037037
6	1816	51000	0.33187037037037
6	1816	51000	0.33184722222222
6	1876	52700	0.27818055555556
6	1876	52700	0.27818055555556
6	1876	52700	0.27751851851852
6	1919	54000	0.23599074074074
6	1919	54000	0.23597222222222
6	1934	54400	0.23247222222222
6	1934	54400	0.23247222222222
6	1934	54400	0.23206481481481
6	1991	56100	0.21612037037037
6	1991	56100	0.21612037037037
6	1991	56100	0.21551851851852
6	2022	57000	0.20676851851852
6	2022	57000	0.20675462962963
6	2051	57800	0.20621296296296
6	2051	57800	0.20621296296296
6	2051	57800	0.20618518518519
6	2108	59500	0.20503240740741
6	2108	59500	0.20503240740741
6	2108	59500	0.20499074074074
6	2125	60000	0.20468518518519
6	2125	60000	0.20462962962963
6	2126	60000	0.20462962962963
6	2126	60000	0.20460648148148
6	2131	60000	0.20455092592593
6	2131	60000	0.20452777777778
6	2173	61200	0.16810185185185
6	2173	61200	0.16810185185185
6	2173	61200	0.16616203703704
6	2232	62900	0.11249537037037
6	2232	62900	0.11249537037037
6	2232	62900	0.11183333333333
6	2235	63000	0.10863888888889
6	2235	63000	0.10862037037037
6	2290	64600	0.093453703703704
6	2290	64600	0.093453703703704
6	2290	64600	0.093046296296296
6	2338	66000	0.079435185185185
6	2338	66000	0.079421296296296
6	2349	66300	0.07925462962963
6	2349	66300	0.07925462962963
6	2349	66300	0.079199074074074
6	2408	68000	0.078032407407407
6	2408	68000	0.07800462962963
6	2409	68000	0.07800462962963
6	2409	68000	0.07800462962963
6	2409	68000	0.077990740740741
6	2411	68000	0.077981481481481
6	2411	68000	0.077967592592593
6	2444	69000	0.077273148148148
6	2444	69000	0.07725
6	2469	69700	0.056166666666667
6	2469	69700	0.056166666666667
6	2469	69700	0.054865740740741
7	0	0	10800000
7	4	0	10799500
7	4	0	10799300
7	87	1700	10622800
7	87	1700	10622800
7	87	1700	10620500
7	130	3000	10484000
7	130	3000	10483850
7	145	3400	10481150
7	145	3400	10481150
7	145	3400	10480700
7	202	5100	10468400
7	202	5100	10468400
7	202	5100	10467800
7	233	6000	10461050
7	233	6000	10460800
7	262	6800	10191700
7	262	6800	10191700
7	262	6800	10184550
7	319	8500	9611850
7	319	8500	9611850
7	319	8500	9597800
7	336	9000	9425300
7	336	9000	9425100
7	371	10000	9324300
7	371	10000	9319900
7	376	10000	9319300
7	376	10000	9319100
7	384	10200	9304300
7	384	10200	9304300
7	384	10200	9297800
7	443	11900	9121400
7	443	11900	9121400
7	443	11900	9119100
7	446	12000	9108600
7	446	12000	9108450
7	502	13600	9096750
7	502	13600	9096750
7	502	13600	9096300
7	549	15000	9085800
7	549	15000	9085550
7	560	15300	9002750
7	560	15300	9002750
7	560	15300	8981800
7	619	17000	8402200
7	619	17000	8402200
7	619	17000	8395050
7	652	18000	8050050
7	652	18000	8049850
7	677	18700	7980550
7	677	18700	7980550
7	677	18700	7976150
7	722	20000	7841750
7	722	20000	7839450
7	727	20000	7838850
7	727	20000	7838650
7	741	20400	7802850
7	741	20400	7802850
7	741	20400	7796350
7	762	21000	7733350
7	762	21000	7733200
7	801	22100	7725100
7	801	22100	7725100
7	801	22100	7724800
7	858	23800	7712350
7	858	23800	7712350
7	858	23800	7711900
7	865	24000	7710400
7	865	24000	7710150
7	916	25500	7213350
7	916	25500	7213350
7	916	25500	7192400
7	968	27000	6674900
7	968	27000	6674700
7	977	27200	6655800
7	977	27200	6655800
7	977	27200	6653500
7	1034	28900	6479200
7	1034	28900	6479200
7	1034	28900	6474800
7	1071	30000	6365600
7	1071	30000	6359100
7	1072	30000	6359100
7	1072	30000	6358950
7	1077	30000	6358350
7	1077	30000	6358200
7	1099	30600	6354050
7	1099	30600	6354050
7	1099	30600	6353450
7	1158	32300	6340850
7	1158	32300	6340850
7	1158	32300	6340550
7	1181	33000	6335300
7	1181	33000	6335050
7	1216	34000	6003850
7	1216	34000	5989800
7	1217	34000	5989800
7	1217	34000	5989800
7	1217	34000	5989550
7	1219	34000	5989450
7	1219	34000	5989200
7	1276	35700	5423400
7	1276	35700	5423400
7	1276	35700	5402450
7	1287	36000	5298950
7	1287	36000	5298750
7	1336	37400	5153850
7	1336	37400	5153850
7	1336	37400	5151550
7	1390	39000	4983550
7	1390	39000	4983400
7	1395	39100	4982950
7	1395	39100	4982950
7	1395	39100	4982500
7	1426	40000	4976050
7	1426	40000	4975600
7	1431	40000	4975000
7	1431	40000	4974850
7	1459	40800	4969200
7	1459	40800	4969200
7	1459	40800	4968600
7	1500	42000	4959600
7	1500	42000	4959350
7	1519	42500	4793750
7	1519	42500	4793750
7	1519	42500	4786600
7	1576	44200	4213900
7	1576	44200	4213900
7	1576	44200	4199850
7	1603	45000	3923850
7	1603	45000	3923650
7	1634	45900	3835450
7	1634	45900	3835450
7	1634	45900	3828950
7	1693	47600	3652550
7	1693	47600	3652550
7	1693	47600	3650250
7	1706	48000	3608250
7	1706	48000	3608100
7	1751	49300	3598650
7	1751	49300	3598650
7	1751	49300	3598200
7	1776	50000	3593100
7	1776	50000	3592800
7	1781	50000	3592200
7	1781	50000	3592050
7	1815	51000	3584450
7	1815	51000	3584200
7	1816	51000	3584200
7	1816	51000	3584200
7	1816	51000	3583950
7	1876	52700	3004350
7	1876	52700	3004350
7	1876	52700	2997200
7	1919	54000	2548700
7	1919	54000	2548500
7	1934	54400	2510700
7	1934	54400	2510700
7	1934	54400	2506300
7	1991	56100	2334100
7	1991	56100	2334100
7	1991	56100	2327600
7	2022	57000	2233100
7	2022	57000	2232950
7	2051	57800	2227100
7	2051	57800	2227100
7	2051	57800	2226800
7	2108	59500	2214350
7	2108	59500	2214350
7	2108	59500	2213900
7	2125	60000	2210600
7	2125	60000	2210000
7	2126	60000	2210000
7	2126	60000	2209750
7	2131	60000	2209150
7	2131	60000	2208900
7	2173	61200	1815500
7	2173	61200	1815500
7	2173	61200	1794550
7	2232	62900	1214950
7	2232	62900	1214950
7	2232	62900	1207800
7	2235	63000	1173300
7	2235	63000	1173100
7	2290	64600	1009300
7	2290	64600	1009300
7	2290	64600	1004900
7	2338	66000	857900
7	2338	66000	857750
7	2349	66300	855950
7	2349	66300	855950
7	2349	66300	855350
7	2408	68000	842750
7	2408	68000	842450
7	2409	68000	842450
7	2409	68000	842450
7	2409	68000	842300
7	2411	68000	842200
7	2411	68000	842050
7	2444	69000	834550
7	2444	69000	834300
7	2469	69700	606600
7	2469	69700	606600
7	2469	69700	592550
8	0	0	100
8	0	0	100
8	0	0	100
8	372	10000	100
8	372	10000	100
8	372	10000	100
8	723	20000	100
8	723	20000	100
8	723	20000	100
8	1073	30000	100
8	1073	30000	100
8	1073	30000	100
8	1427	40000	100
8	1427	40000	100
8	1427	40000	100
8	1777	50000	100
8	1777	50000	100
8	1777	50000	100
8	2127	60000	100
8	2127	60000	100
8	2127	60000	100
9	0	0	3
9	130	3000	0.3
9	233	6000	3
9	336	9000	3
9	446	12000	0.3
9	549	15000	3
9	652	18000	3
9	762	21000	0.3
9	865	24000	3
9	968	27000	3
9	1072	30000	0.3
9	1181	33000	3
9	1287	36000	3
9	1390	39000	0.3
9	1500	42000	3
9	1603	45000	3
9	1706	48000	0.3
9	1815	51000	3
9	1919	54000	3
9	2022	57000	0.3
9	2126	60000	3
9	2235	63000	3
9	2338	66000	0.3
9	2444	69000	3
10	0	0	100
10	1	0	100
10	373	10000	100
10	724	20000	100
10	1074	30000	100
10	1428	40000	100
10	1778	50000	100
10	2128	60000	100
11	0	0	3
11	130	3000	0.3
11	233	6000	3
11	336	9000	3
11	446	12000	0.3
11	549	15000	3
11	652	18000	3
11	762	21000	0.3
11	865	24000	3
11	968	27000	3
11	1072	30000	0.3
11	1181	33000	3
11	1287	36000	3
11	1390	39000	0.3
11	1500	42000	3
11	1603	45000	3
11	1706	48000	0.3
11	1815	51000	3
11	1919	54000	3
11	2022	57000	0.3
11	2126	60000	3
11	2235	63000	3
11	2338	66000	0.3
11	2444	69000	3
12	0	0	100
12	2	0	100
12	374	10000	100
12	725	20000	100
12	1075	30000	100
12	1429	40000	100
12	1779	50000	100
12	2129	60000	100
13	0	0	3
13	130	3000	0.3
13	233	6000	3
13	336	9000	3
13	446	12000	0.3
13	549	15000	3
13	652	18000	3
13	762	21000	0.3
13	865	24000	3
13	968	27000	3
13	1072	30000	0.3
13	1181	33000	3
13	1287	36000	3
13	1390	39000	0.3
13	1500	42000	3
13	1603	45000	3
13	1706	48000	0.3
13	1815	51000	3
13	1919	54000	3
13	2022	57000	0.3
13	2126	60000	3
13	2235	63000	3
13	2338	66000	0.3
13	2444	69000	3
14	0	0	100
14	3	0	100
14	375	10000	100
14	726	20000	100
14	1076	30000	100
14	1430	40000	100
14	1780	50000	100
14	2130	60000	100
15	0	0	3
15	130	3000	0.3
15	233	6000	3
15	336	9000	3
15	446	12000	0.3
15	549	15000	3
15	652	18000	3
15	762	21000	0.3
15	865	24000	3
15	968	27000	3
15	1072	30000	0.3
15	1181	33000	3
15	1287	36000	3
15	1390	39000	0.3
15	1500	42000	3
15	1603	45000	3
15	1706	48000	0.3
15	1815	51000	3
15	1919	54000	3
15	2022	57000	0.3
15	2126	60000	3
15	2235	63000	3
15	2338	66000	0.3
15	2444	69000	3
16	0	0	100
16	5	0	100
16	377	10000	100
16	728	20000	100
16	1078	30000	100
16	1218	34000	100
16	1432	40000	100
16	1782	50000	100
16	2132	60000	100
16	2410	68000	100
17	0	0	3
17	130	3000	0.3
17	233	6000	3
17	336	9000	3
17	446	12000	0.3
17	549	15000	3
17	652	18000	3
17	762	21000	0.3
17	865	24000	3
17	968	27000	3
17	1072	30000	0.3
17	1181	33000	3
17	1287	36000	3
17	1390	39000	0.3
17	1500	42000	3
17	1603	45000	3
17	1706	48000	0.3
17	1815	51000	3
17	1919	54000	3
17	2022	57000	0.3
17	2126	60000	3
17	2235	63000	3
17	2338	66000	0.3
17	2444	69000	3
