version 2
run General-0-20150519-11:16:05-12914
attr configname General
attr datetime 20150519-11:16:05
attr experiment General
attr inifile omnetpp.ini
attr iterationvars ""
attr iterationvars2 $repetition=0
attr measurement ""
attr network SensorExample
attr processid 12914
attr repetition 0
attr replication #0
attr resultdir results
attr runnumber 0
attr seedset 0

vector 3  SensorExample.SensorNode.Processor  "power mode"  ETV
vector 4  SensorExample.SensorNode.Processor  "Sensor Modules Status"  ETV
vector 5  SensorExample.SensorNode.Processor  Voltage  ETV
vector 6  SensorExample.SensorNode.Processor  residualRelative  ETV
vector 7  SensorExample.SensorNode.Processor  residualAbs  ETV
vector 8  SensorExample.SensorNode.TemperatureSensor.SensingUnit  "Energy Consumptions"  ETV
vector 9  SensorExample.SensorNode.TemperatureSensor.SensingUnit  "Current use over time"  ETV
vector 10  SensorExample.SensorNode.TemperatureSensor.SignalConditioner  "Energy Consumptions"  ETV
vector 11  SensorExample.SensorNode.TemperatureSensor.SignalConditioner  "Current use over time"  ETV
vector 12  SensorExample.SensorNode.TemperatureSensor.SignalConverter  "Energy Consumptions"  ETV
vector 13  SensorExample.SensorNode.TemperatureSensor.SignalConverter  "Current use over time"  ETV
vector 14  SensorExample.SensorNode.TemperatureSensor.Transducer  "Energy Consumptions"  ETV
vector 15  SensorExample.SensorNode.TemperatureSensor.Transducer  "Current use over time"  ETV
vector 16  SensorExample.SensorNode.Memory  "Energy Consumptions"  ETV
vector 17  SensorExample.SensorNode.Memory  "Current use over time"  ETV
3	0	0	0
3	0	0	0
3	98	2000	1
3	167	4000	2
3	236	6000	0
3	236	6000	0
3	307	8000	1
3	377	10000	2
3	453	12000	0
3	453	12000	0
3	524	14000	1
3	593	16000	2
3	662	18000	0
3	662	18000	0
3	734	20000	1
3	809	22000	2
3	879	24000	0
3	879	24000	0
3	950	26000	1
3	1019	28000	2
3	1089	30000	0
3	1089	30000	0
3	1166	32000	1
3	1235	34000	2
3	1305	36000	0
3	1305	36000	0
3	1376	38000	1
3	1447	40000	2
4	0	0	0
4	4	0	0
4	376	10000	1
4	383	10000	0
4	733	20000	1
4	740	20000	0
4	1088	30000	1
4	1095	30000	0
4	1446	40000	1
4	1455	40000	0
5	0	0	3
5	4	0	3
5	4	0	3
5	63	1000	3
5	63	1000	3
5	63	1000	3
5	98	2000	3
5	98	2000	3
5	99	2000	3
5	99	2000	3
5	99	2000	3
5	132	3000	3
5	132	3000	3
5	132	3000	3
5	167	4000	3
5	167	4000	3
5	168	4000	3
5	168	4000	3
5	168	4000	3
5	203	5000	3
5	203	5000	3
5	203	5000	3
5	236	6000	3
5	236	6000	3
5	237	6000	3
5	237	6000	3
5	237	6000	3
5	272	7000	3
5	272	7000	3
5	272	7000	3
5	307	8000	3
5	307	8000	3
5	308	8000	3
5	308	8000	3
5	308	8000	3
5	341	9000	3
5	341	9000	3
5	341	9000	3
5	376	10000	3
5	376	10000	3
5	377	10000	3
5	377	10000	3
5	378	10000	3
5	378	10000	3
5	378	10000	3
5	383	10000	3
5	383	10000	3
5	419	11000	3
5	419	11000	3
5	419	11000	3
5	453	12000	3
5	453	12000	3
5	454	12000	3
5	454	12000	3
5	454	12000	3
5	489	13000	3
5	489	13000	3
5	489	13000	3
5	524	14000	3
5	524	14000	3
5	525	14000	3
5	525	14000	3
5	525	14000	3
5	558	15000	3
5	558	15000	3
5	558	15000	3
5	593	16000	3
5	593	16000	3
5	594	16000	3
5	594	16000	3
5	594	16000	3
5	629	17000	3
5	629	17000	3
5	629	17000	3
5	662	18000	3
5	662	18000	3
5	663	18000	3
5	663	18000	3
5	663	18000	3
5	698	19000	3
5	698	19000	3
5	698	19000	3
5	733	20000	3
5	733	20000	3
5	734	20000	3
5	734	20000	3
5	735	20000	3
5	735	20000	3
5	735	20000	3
5	740	20000	3
5	740	20000	3
5	774	21000	3
5	774	21000	3
5	774	21000	3
5	809	22000	3
5	809	22000	3
5	810	22000	3
5	810	22000	3
5	810	22000	3
5	845	23000	3
5	845	23000	3
5	845	23000	3
5	879	24000	3
5	879	24000	3
5	880	24000	3
5	880	24000	3
5	880	24000	3
5	915	25000	3
5	915	25000	3
5	915	25000	3
5	950	26000	3
5	950	26000	3
5	951	26000	3
5	951	26000	3
5	951	26000	3
5	984	27000	3
5	984	27000	3
5	984	27000	3
5	1019	28000	3
5	1019	28000	3
5	1020	28000	3
5	1020	28000	3
5	1020	28000	3
5	1055	29000	3
5	1055	29000	3
5	1055	29000	3
5	1088	30000	3
5	1088	30000	3
5	1089	30000	3
5	1089	30000	3
5	1090	30000	3
5	1090	30000	3
5	1090	30000	3
5	1095	30000	3
5	1095	30000	3
5	1131	31000	3
5	1131	31000	3
5	1131	31000	3
5	1166	32000	3
5	1166	32000	3
5	1167	32000	3
5	1167	32000	3
5	1167	32000	3
5	1200	33000	3
5	1200	33000	3
5	1200	33000	3
5	1235	34000	3
5	1235	34000	3
5	1236	34000	3
5	1236	34000	3
5	1236	34000	3
5	1271	35000	3
5	1271	35000	3
5	1271	35000	3
5	1305	36000	3
5	1305	36000	3
5	1306	36000	3
5	1306	36000	3
5	1306	36000	3
5	1341	37000	3
5	1341	37000	3
5	1341	37000	3
5	1376	38000	3
5	1376	38000	3
5	1377	38000	3
5	1377	38000	3
5	1377	38000	3
5	1410	39000	3
5	1410	39000	3
5	1410	39000	3
5	1445	40000	3
5	1445	40000	3
5	1446	40000	3
5	1446	40000	3
5	1447	40000	3
5	1447	40000	3
5	1448	40000	3
5	1448	40000	3
5	1448	40000	3
5	1451	40000	3
5	1451	40000	3
5	1455	40000	3
5	1455	40000	3
5	1491	41000	3
5	1491	41000	3
5	1491	41000	3
6	0	0	1
6	4	0	0.9999537037037
6	4	0	0.99993518518519
6	63	1000	0.99059259259259
6	63	1000	0.99059259259259
6	63	1000	0.99018518518519
6	98	2000	0.98046296296296
6	98	2000	0.98044907407407
6	99	2000	0.98044907407407
6	99	2000	0.98044907407407
6	99	2000	0.98043518518519
6	132	3000	0.97978240740741
6	132	3000	0.97978240740741
6	132	3000	0.97972685185185
6	167	4000	0.97903240740741
6	167	4000	0.97900925925926
6	168	4000	0.97900925925926
6	168	4000	0.97900925925926
6	168	4000	0.97898611111111
6	203	5000	0.94768055555556
6	203	5000	0.94768055555556
6	203	5000	0.94701851851852
6	236	6000	0.91507407407407
6	236	6000	0.91505555555556
6	237	6000	0.91505555555556
6	237	6000	0.91505555555556
6	237	6000	0.91503703703704
6	272	7000	0.9057037037037
6	272	7000	0.9057037037037
6	272	7000	0.9052962962963
6	307	8000	0.89557407407407
6	307	8000	0.89556018518519
6	308	8000	0.89556018518519
6	308	8000	0.89556018518519
6	308	8000	0.8955462962963
6	341	9000	0.89489351851852
6	341	9000	0.89489351851852
6	341	9000	0.89483796296296
6	376	10000	0.8941712962963
6	376	10000	0.89412962962963
6	377	10000	0.89412962962963
6	377	10000	0.89410648148148
6	378	10000	0.89410648148148
6	378	10000	0.89410648148148
6	378	10000	0.89408333333333
6	383	10000	0.89402777777778
6	383	10000	0.89400462962963
6	419	11000	0.86268981481481
6	419	11000	0.86268981481481
6	419	11000	0.86202777777778
6	453	12000	0.83008333333333
6	453	12000	0.83006481481481
6	454	12000	0.83006481481481
6	454	12000	0.83006481481481
6	454	12000	0.8300462962963
6	489	13000	0.82071296296296
6	489	13000	0.82071296296296
6	489	13000	0.82030555555556
6	524	14000	0.81058333333333
6	524	14000	0.81056944444444
6	525	14000	0.81056944444444
6	525	14000	0.81056944444444
6	525	14000	0.81055555555556
6	558	15000	0.80990277777778
6	558	15000	0.80990277777778
6	558	15000	0.80984722222222
6	593	16000	0.80915277777778
6	593	16000	0.80912962962963
6	594	16000	0.80912962962963
6	594	16000	0.80912962962963
6	594	16000	0.80910648148148
6	629	17000	0.77780092592593
6	629	17000	0.77780092592593
6	629	17000	0.77713888888889
6	662	18000	0.74519444444444
6	662	18000	0.74517592592593
6	663	18000	0.74517592592593
6	663	18000	0.74517592592593
6	663	18000	0.74515740740741
6	698	19000	0.73582407407407
6	698	19000	0.73582407407407
6	698	19000	0.73541666666667
6	733	20000	0.72588888888889
6	733	20000	0.72567592592593
6	734	20000	0.72567592592593
6	734	20000	0.72566203703704
6	735	20000	0.72566203703704
6	735	20000	0.72566203703704
6	735	20000	0.72564814814815
6	740	20000	0.72559259259259
6	740	20000	0.7255787037037
6	774	21000	0.72491666666667
6	774	21000	0.72491666666667
6	774	21000	0.72486111111111
6	809	22000	0.72416666666667
6	809	22000	0.72414351851852
6	810	22000	0.72414351851852
6	810	22000	0.72414351851852
6	810	22000	0.72412037037037
6	845	23000	0.69281481481481
6	845	23000	0.69281481481481
6	845	23000	0.69215277777778
6	879	24000	0.66020833333333
6	879	24000	0.66018981481481
6	880	24000	0.66018981481481
6	880	24000	0.66018981481481
6	880	24000	0.6601712962963
6	915	25000	0.65083796296296
6	915	25000	0.65083796296296
6	915	25000	0.65043055555556
6	950	26000	0.64070833333333
6	950	26000	0.64069444444444
6	951	26000	0.64069444444444
6	951	26000	0.64069444444444
6	951	26000	0.64068055555556
6	984	27000	0.64002777777778
6	984	27000	0.64002777777778
6	984	27000	0.63997222222222
6	1019	28000	0.63927777777778
6	1019	28000	0.63925462962963
6	1020	28000	0.63925462962963
6	1020	28000	0.63925462962963
6	1020	28000	0.63923148148148
6	1055	29000	0.60792592592593
6	1055	29000	0.60792592592593
6	1055	29000	0.60726388888889
6	1088	30000	0.57723611111111
6	1088	30000	0.5752962962963
6	1089	30000	0.5752962962963
6	1089	30000	0.57527777777778
6	1090	30000	0.57527777777778
6	1090	30000	0.57527777777778
6	1090	30000	0.57525925925926
6	1095	30000	0.5752037037037
6	1095	30000	0.57518518518519
6	1131	31000	0.56584259259259
6	1131	31000	0.56584259259259
6	1131	31000	0.56543518518519
6	1166	32000	0.55571296296296
6	1166	32000	0.55569907407407
6	1167	32000	0.55569907407407
6	1167	32000	0.55569907407407
6	1167	32000	0.55568518518519
6	1200	33000	0.55503240740741
6	1200	33000	0.55503240740741
6	1200	33000	0.55497685185185
6	1235	34000	0.55428240740741
6	1235	34000	0.55425925925926
6	1236	34000	0.55425925925926
6	1236	34000	0.55425925925926
6	1236	34000	0.55423611111111
6	1271	35000	0.52293055555556
6	1271	35000	0.52293055555556
6	1271	35000	0.52226851851852
6	1305	36000	0.49032407407407
6	1305	36000	0.49030555555556
6	1306	36000	0.49030555555556
6	1306	36000	0.49030555555556
6	1306	36000	0.49028703703704
6	1341	37000	0.4809537037037
6	1341	37000	0.4809537037037
6	1341	37000	0.4805462962963
6	1376	38000	0.47082407407407
6	1376	38000	0.47081018518519
6	1377	38000	0.47081018518519
6	1377	38000	0.47081018518519
6	1377	38000	0.4707962962963
6	1410	39000	0.47014351851852
6	1410	39000	0.47014351851852
6	1410	39000	0.47008796296296
6	1445	40000	0.4694212962963
6	1445	40000	0.46937962962963
6	1446	40000	0.46937962962963
6	1446	40000	0.46936574074074
6	1447	40000	0.46936574074074
6	1447	40000	0.46934259259259
6	1448	40000	0.46934259259259
6	1448	40000	0.46934259259259
6	1448	40000	0.46931944444444
6	1451	40000	0.46928240740741
6	1451	40000	0.46925925925926
6	1455	40000	0.46923148148148
6	1455	40000	0.46920833333333
6	1491	41000	0.43789351851852
6	1491	41000	0.43789351851852
6	1491	41000	0.43723148148148
7	0	0	10800000
7	4	0	10799500
7	4	0	10799300
7	63	1000	10698400
7	63	1000	10698400
7	63	1000	10694000
7	98	2000	10589000
7	98	2000	10588850
7	99	2000	10588850
7	99	2000	10588850
7	99	2000	10588700
7	132	3000	10581650
7	132	3000	10581650
7	132	3000	10581050
7	167	4000	10573550
7	167	4000	10573300
7	168	4000	10573300
7	168	4000	10573300
7	168	4000	10573050
7	203	5000	10234950
7	203	5000	10234950
7	203	5000	10227800
7	236	6000	9882800
7	236	6000	9882600
7	237	6000	9882600
7	237	6000	9882600
7	237	6000	9882400
7	272	7000	9781600
7	272	7000	9781600
7	272	7000	9777200
7	307	8000	9672200
7	307	8000	9672050
7	308	8000	9672050
7	308	8000	9672050
7	308	8000	9671900
7	341	9000	9664850
7	341	9000	9664850
7	341	9000	9664250
7	376	10000	9657050
7	376	10000	9656600
7	377	10000	9656600
7	377	10000	9656350
7	378	10000	9656350
7	378	10000	9656350
7	378	10000	9656100
7	383	10000	9655500
7	383	10000	9655250
7	419	11000	9317050
7	419	11000	9317050
7	419	11000	9309900
7	453	12000	8964900
7	453	12000	8964700
7	454	12000	8964700
7	454	12000	8964700
7	454	12000	8964500
7	489	13000	8863700
7	489	13000	8863700
7	489	13000	8859300
7	524	14000	8754300
7	524	14000	8754150
7	525	14000	8754150
7	525	14000	8754150
7	525	14000	8754000
7	558	15000	8746950
7	558	15000	8746950
7	558	15000	8746350
7	593	16000	8738850
7	593	16000	8738600
7	594	16000	8738600
7	594	16000	8738600
7	594	16000	8738350
7	629	17000	8400250
7	629	17000	8400250
7	629	17000	8393100
7	662	18000	8048100
7	662	18000	8047900
7	663	18000	8047900
7	663	18000	8047900
7	663	18000	8047700
7	698	19000	7946900
7	698	19000	7946900
7	698	19000	7942500
7	733	20000	7839600
7	733	20000	7837300
7	734	20000	7837300
7	734	20000	7837150
7	735	20000	7837150
7	735	20000	7837150
7	735	20000	7837000
7	740	20000	7836400
7	740	20000	7836250
7	774	21000	7829100
7	774	21000	7829100
7	774	21000	7828500
7	809	22000	7821000
7	809	22000	7820750
7	810	22000	7820750
7	810	22000	7820750
7	810	22000	7820500
7	845	23000	7482400
7	845	23000	7482400
7	845	23000	7475250
7	879	24000	7130250
7	879	24000	7130050
7	880	24000	7130050
7	880	24000	7130050
7	880	24000	7129850
7	915	25000	7029050
7	915	25000	7029050
7	915	25000	7024650
7	950	26000	6919650
7	950	26000	6919500
7	951	26000	6919500
7	951	26000	6919500
7	951	26000	6919350
7	984	27000	6912300
7	984	27000	6912300
7	984	27000	6911700
7	1019	28000	6904200
7	1019	28000	6903950
7	1020	28000	6903950
7	1020	28000	6903950
7	1020	28000	6903700
7	1055	29000	6565600
7	1055	29000	6565600
7	1055	29000	6558450
7	1088	30000	6234150
7	1088	30000	6213200
7	1089	30000	6213200
7	1089	30000	6213000
7	1090	30000	6213000
7	1090	30000	6213000
7	1090	30000	6212800
7	1095	30000	6212200
7	1095	30000	6212000
7	1131	31000	6111100
7	1131	31000	6111100
7	1131	31000	6106700
7	1166	32000	6001700
7	1166	32000	6001550
7	1167	32000	6001550
7	1167	32000	6001550
7	1167	32000	6001400
7	1200	33000	5994350
7	1200	33000	5994350
7	1200	33000	5993750
7	1235	34000	5986250
7	1235	34000	5986000
7	1236	34000	5986000
7	1236	34000	5986000
7	1236	34000	5985750
7	1271	35000	5647650
7	1271	35000	5647650
7	1271	35000	5640500
7	1305	36000	5295500
7	1305	36000	5295300
7	1306	36000	5295300
7	1306	36000	5295300
7	1306	36000	5295100
7	1341	37000	5194300
7	1341	37000	5194300
7	1341	37000	5189900
7	1376	38000	5084900
7	1376	38000	5084750
7	1377	38000	5084750
7	1377	38000	5084750
7	1377	38000	5084600
7	1410	39000	5077550
7	1410	39000	5077550
7	1410	39000	5076950
7	1445	40000	5069750
7	1445	40000	5069300
7	1446	40000	5069300
7	1446	40000	5069150
7	1447	40000	5069150
7	1447	40000	5068900
7	1448	40000	5068900
7	1448	40000	5068900
7	1448	40000	5068650
7	1451	40000	5068250
7	1451	40000	5068000
7	1455	40000	5067700
7	1455	40000	5067450
7	1491	41000	4729250
7	1491	41000	4729250
7	1491	41000	4722100
8	0	0	100
8	0	0	100
8	0	0	100
8	379	10000	100
8	379	10000	100
8	379	10000	100
8	736	20000	100
8	736	20000	100
8	736	20000	100
8	1091	30000	100
8	1091	30000	100
8	1091	30000	100
8	1450	40000	100
8	1450	40000	100
8	1450	40000	100
9	0	0	3
9	98	2000	0.3
9	167	4000	3
9	236	6000	3
9	307	8000	0.3
9	377	10000	3
9	453	12000	3
9	524	14000	0.3
9	593	16000	3
9	662	18000	3
9	734	20000	0.3
9	809	22000	3
9	879	24000	3
9	950	26000	0.3
9	1019	28000	3
9	1089	30000	3
9	1166	32000	0.3
9	1235	34000	3
9	1305	36000	3
9	1376	38000	0.3
9	1447	40000	3
10	0	0	100
10	1	0	100
10	380	10000	100
10	737	20000	100
10	1092	30000	100
10	1452	40000	100
11	0	0	3
11	98	2000	0.3
11	167	4000	3
11	236	6000	3
11	307	8000	0.3
11	377	10000	3
11	453	12000	3
11	524	14000	0.3
11	593	16000	3
11	662	18000	3
11	734	20000	0.3
11	809	22000	3
11	879	24000	3
11	950	26000	0.3
11	1019	28000	3
11	1089	30000	3
11	1166	32000	0.3
11	1235	34000	3
11	1305	36000	3
11	1376	38000	0.3
11	1447	40000	3
12	0	0	100
12	2	0	100
12	381	10000	100
12	738	20000	100
12	1093	30000	100
12	1453	40000	100
13	0	0	3
13	98	2000	0.3
13	167	4000	3
13	236	6000	3
13	307	8000	0.3
13	377	10000	3
13	453	12000	3
13	524	14000	0.3
13	593	16000	3
13	662	18000	3
13	734	20000	0.3
13	809	22000	3
13	879	24000	3
13	950	26000	0.3
13	1019	28000	3
13	1089	30000	3
13	1166	32000	0.3
13	1235	34000	3
13	1305	36000	3
13	1376	38000	0.3
13	1447	40000	3
14	0	0	100
14	3	0	100
14	382	10000	100
14	739	20000	100
14	1094	30000	100
14	1454	40000	100
15	0	0	3
15	98	2000	0.3
15	167	4000	3
15	236	6000	3
15	307	8000	0.3
15	377	10000	3
15	453	12000	3
15	524	14000	0.3
15	593	16000	3
15	662	18000	3
15	734	20000	0.3
15	809	22000	3
15	879	24000	3
15	950	26000	0.3
15	1019	28000	3
15	1089	30000	3
15	1166	32000	0.3
15	1235	34000	3
15	1305	36000	3
15	1376	38000	0.3
15	1447	40000	3
16	0	0	100
16	5	0	100
16	384	10000	100
16	741	20000	100
16	1096	30000	100
16	1449	40000	100
16	1456	40000	100
17	0	0	3
17	98	2000	0.3
17	167	4000	3
17	236	6000	3
17	307	8000	0.3
17	377	10000	3
17	453	12000	3
17	524	14000	0.3
17	593	16000	3
17	662	18000	3
17	734	20000	0.3
17	809	22000	3
17	879	24000	3
17	950	26000	0.3
17	1019	28000	3
17	1089	30000	3
17	1166	32000	0.3
17	1235	34000	3
17	1305	36000	3
17	1376	38000	0.3
17	1447	40000	3
