version 2
run General-0-20150515-21:14:43-22509
attr configname General
attr datetime 20150515-21:14:43
attr experiment General
attr inifile omnetpp.ini
attr iterationvars ""
attr iterationvars2 $repetition=0
attr measurement ""
attr network SensorExample
attr processid 22509
attr repetition 0
attr replication #0
attr resultdir results
attr runnumber 0
attr seedset 0

vector 3  SensorExample.SensorNode.Processor  "power mode"  ETV
vector 4  SensorExample.SensorNode.Processor  "Sensor Modules Status"  ETV
vector 5  SensorExample.SensorNode.Processor  Voltage  ETV
vector 6  SensorExample.SensorNode.Processor  residualRelative  ETV
vector 7  SensorExample.SensorNode.Processor  residualAbs  ETV
vector 8  SensorExample.SensorNode.TemperatureSensor.SensingUnit  "Energy Consumptions"  ETV
vector 9  SensorExample.SensorNode.TemperatureSensor.SensingUnit  "Current use over time"  ETV
vector 10  SensorExample.SensorNode.TemperatureSensor.SignalConditioner  "Energy Consumptions"  ETV
vector 11  SensorExample.SensorNode.TemperatureSensor.SignalConditioner  "Current use over time"  ETV
vector 12  SensorExample.SensorNode.TemperatureSensor.SignalConverter  "Energy Consumptions"  ETV
vector 13  SensorExample.SensorNode.TemperatureSensor.SignalConverter  "Current use over time"  ETV
vector 14  SensorExample.SensorNode.TemperatureSensor.Transducer  "Energy Consumptions"  ETV
vector 15  SensorExample.SensorNode.TemperatureSensor.Transducer  "Current use over time"  ETV
vector 16  SensorExample.SensorNode.Memory  "Energy Consumptions"  ETV
vector 17  SensorExample.SensorNode.Memory  "Current use over time"  ETV
3	0	0	0
3	0	0	0
3	98	2000	1
3	167	4000	2
3	236	6000	0
3	236	6000	0
3	307	8000	1
3	377	10000	2
3	452	12000	0
3	452	12000	0
3	523	14000	1
3	592	16000	2
3	661	18000	0
3	661	18000	0
3	733	20000	1
3	808	22000	2
3	877	24000	0
3	877	24000	0
3	948	26000	1
3	1017	28000	2
3	1087	30000	0
3	1087	30000	0
3	1164	32000	1
3	1233	34000	2
3	1302	36000	0
3	1302	36000	0
3	1373	38000	1
3	1443	40000	2
3	1518	42000	0
3	1518	42000	0
3	1589	44000	1
3	1658	46000	2
3	1727	48000	0
3	1727	48000	0
3	1799	50000	1
3	1874	52000	2
3	1943	54000	0
3	1943	54000	0
3	2014	56000	1
3	2083	58000	2
3	2153	60000	0
3	2153	60000	0
3	2230	62000	1
3	2299	64000	2
3	2368	66000	0
3	2368	66000	0
3	2439	68000	1
3	2509	70000	2
4	0	0	0
4	4	0	0
4	376	10000	1
4	383	10000	0
4	732	20000	1
4	739	20000	0
4	1086	30000	1
4	1093	30000	0
4	1442	40000	1
4	1449	40000	0
4	1798	50000	1
4	1805	50000	0
4	2152	60000	1
4	2159	60000	0
4	2508	70000	1
4	2515	70000	0
5	0	0	3
5	4	0	3
5	4	0	3
5	63	1000	3
5	63	1000	3
5	63	1000	3
5	98	2000	3
5	98	2000	3
5	99	2000	3
5	99	2000	3
5	99	2000	3
5	132	3000	3
5	132	3000	3
5	132	3000	3
5	167	4000	3
5	167	4000	3
5	168	4000	3
5	168	4000	3
5	168	4000	3
5	203	5000	3
5	203	5000	3
5	203	5000	3
5	236	6000	3
5	236	6000	3
5	237	6000	3
5	237	6000	3
5	237	6000	3
5	272	7000	3
5	272	7000	3
5	272	7000	3
5	307	8000	3
5	307	8000	3
5	308	8000	3
5	308	8000	3
5	308	8000	3
5	341	9000	3
5	341	9000	3
5	341	9000	3
5	376	10000	3
5	376	10000	3
5	377	10000	3
5	377	10000	3
5	378	10000	3
5	378	10000	3
5	378	10000	3
5	383	10000	3
5	383	10000	3
5	419	11000	3
5	419	11000	3
5	419	11000	3
5	452	12000	3
5	452	12000	3
5	453	12000	3
5	453	12000	3
5	453	12000	3
5	488	13000	3
5	488	13000	3
5	488	13000	3
5	523	14000	3
5	523	14000	3
5	524	14000	3
5	524	14000	3
5	524	14000	3
5	557	15000	3
5	557	15000	3
5	557	15000	3
5	592	16000	3
5	592	16000	3
5	593	16000	3
5	593	16000	3
5	593	16000	3
5	628	17000	3
5	628	17000	3
5	628	17000	3
5	661	18000	3
5	661	18000	3
5	662	18000	3
5	662	18000	3
5	662	18000	3
5	697	19000	3
5	697	19000	3
5	697	19000	3
5	732	20000	3
5	732	20000	3
5	733	20000	3
5	733	20000	3
5	734	20000	3
5	734	20000	3
5	734	20000	3
5	739	20000	3
5	739	20000	3
5	773	21000	3
5	773	21000	3
5	773	21000	3
5	808	22000	3
5	808	22000	3
5	809	22000	3
5	809	22000	3
5	809	22000	3
5	844	23000	3
5	844	23000	3
5	844	23000	3
5	877	24000	3
5	877	24000	3
5	878	24000	3
5	878	24000	3
5	878	24000	3
5	913	25000	3
5	913	25000	3
5	913	25000	3
5	948	26000	3
5	948	26000	3
5	949	26000	3
5	949	26000	3
5	949	26000	3
5	982	27000	3
5	982	27000	3
5	982	27000	3
5	1017	28000	3
5	1017	28000	3
5	1018	28000	3
5	1018	28000	3
5	1018	28000	3
5	1053	29000	3
5	1053	29000	3
5	1053	29000	3
5	1086	30000	3
5	1086	30000	3
5	1087	30000	3
5	1087	30000	3
5	1088	30000	3
5	1088	30000	3
5	1088	30000	3
5	1093	30000	3
5	1093	30000	3
5	1129	31000	3
5	1129	31000	3
5	1129	31000	3
5	1164	32000	3
5	1164	32000	3
5	1165	32000	3
5	1165	32000	3
5	1165	32000	3
5	1198	33000	3
5	1198	33000	3
5	1198	33000	3
5	1233	34000	3
5	1233	34000	3
5	1234	34000	3
5	1234	34000	3
5	1234	34000	3
5	1269	35000	3
5	1269	35000	3
5	1269	35000	3
5	1302	36000	3
5	1302	36000	3
5	1303	36000	3
5	1303	36000	3
5	1303	36000	3
5	1338	37000	3
5	1338	37000	3
5	1338	37000	3
5	1373	38000	3
5	1373	38000	3
5	1374	38000	3
5	1374	38000	3
5	1374	38000	3
5	1407	39000	3
5	1407	39000	3
5	1407	39000	3
5	1442	40000	3
5	1442	40000	3
5	1443	40000	3
5	1443	40000	3
5	1444	40000	3
5	1444	40000	3
5	1444	40000	3
5	1449	40000	3
5	1449	40000	3
5	1485	41000	3
5	1485	41000	3
5	1485	41000	3
5	1518	42000	3
5	1518	42000	3
5	1519	42000	3
5	1519	42000	3
5	1519	42000	3
5	1554	43000	3
5	1554	43000	3
5	1554	43000	3
5	1589	44000	3
5	1589	44000	3
5	1590	44000	3
5	1590	44000	3
5	1590	44000	3
5	1623	45000	3
5	1623	45000	3
5	1623	45000	3
5	1658	46000	3
5	1658	46000	3
5	1659	46000	3
5	1659	46000	3
5	1659	46000	3
5	1694	47000	3
5	1694	47000	3
5	1694	47000	3
5	1727	48000	3
5	1727	48000	3
5	1728	48000	3
5	1728	48000	3
5	1728	48000	3
5	1763	49000	3
5	1763	49000	3
5	1763	49000	3
5	1798	50000	3
5	1798	50000	3
5	1799	50000	3
5	1799	50000	3
5	1800	50000	3
5	1800	50000	3
5	1800	50000	3
5	1805	50000	3
5	1805	50000	3
5	1839	51000	3
5	1839	51000	3
5	1839	51000	3
5	1874	52000	3
5	1874	52000	3
5	1875	52000	3
5	1875	52000	3
5	1875	52000	3
5	1910	53000	3
5	1910	53000	3
5	1910	53000	3
5	1943	54000	3
5	1943	54000	3
5	1944	54000	3
5	1944	54000	3
5	1944	54000	3
5	1979	55000	3
5	1979	55000	3
5	1979	55000	3
5	2014	56000	3
5	2014	56000	3
5	2015	56000	3
5	2015	56000	3
5	2015	56000	3
5	2048	57000	3
5	2048	57000	3
5	2048	57000	3
5	2083	58000	3
5	2083	58000	3
5	2084	58000	3
5	2084	58000	3
5	2084	58000	3
5	2119	59000	3
5	2119	59000	3
5	2119	59000	3
5	2152	60000	3
5	2152	60000	3
5	2153	60000	3
5	2153	60000	3
5	2154	60000	3
5	2154	60000	3
5	2154	60000	3
5	2159	60000	3
5	2159	60000	3
5	2195	61000	3
5	2195	61000	3
5	2195	61000	3
5	2230	62000	3
5	2230	62000	3
5	2231	62000	3
5	2231	62000	3
5	2231	62000	3
5	2264	63000	3
5	2264	63000	3
5	2264	63000	3
5	2299	64000	3
5	2299	64000	3
5	2300	64000	3
5	2300	64000	3
5	2300	64000	3
5	2335	65000	3
5	2335	65000	3
5	2335	65000	3
5	2368	66000	3
5	2368	66000	3
5	2369	66000	3
5	2369	66000	3
5	2369	66000	3
5	2404	67000	3
5	2404	67000	3
5	2404	67000	3
5	2439	68000	3
5	2439	68000	3
5	2440	68000	3
5	2440	68000	3
5	2440	68000	3
5	2473	69000	3
5	2473	69000	3
5	2473	69000	3
5	2508	70000	3
5	2508	70000	3
5	2509	70000	3
5	2509	70000	3
5	2510	70000	3
5	2510	70000	3
5	2510	70000	3
5	2515	70000	3
5	2515	70000	3
5	2551	71000	3
5	2551	71000	3
5	2551	71000	3
6	0	0	1
6	4	0	0.9999537037037
6	4	0	0.99993518518519
6	63	1000	0.99059259259259
6	63	1000	0.99059259259259
6	63	1000	0.99018518518519
6	98	2000	0.98046296296296
6	98	2000	0.98044907407407
6	99	2000	0.98044907407407
6	99	2000	0.98044907407407
6	99	2000	0.98043518518519
6	132	3000	0.97978240740741
6	132	3000	0.97978240740741
6	132	3000	0.97972685185185
6	167	4000	0.97903240740741
6	167	4000	0.97900925925926
6	168	4000	0.97900925925926
6	168	4000	0.97900925925926
6	168	4000	0.97898611111111
6	203	5000	0.94768055555556
6	203	5000	0.94768055555556
6	203	5000	0.94701851851852
6	236	6000	0.91507407407407
6	236	6000	0.91505555555556
6	237	6000	0.91505555555556
6	237	6000	0.91505555555556
6	237	6000	0.91503703703704
6	272	7000	0.9057037037037
6	272	7000	0.9057037037037
6	272	7000	0.9052962962963
6	307	8000	0.89557407407407
6	307	8000	0.89556018518519
6	308	8000	0.89556018518519
6	308	8000	0.89556018518519
6	308	8000	0.8955462962963
6	341	9000	0.89489351851852
6	341	9000	0.89489351851852
6	341	9000	0.89483796296296
6	376	10000	0.8941712962963
6	376	10000	0.89412962962963
6	377	10000	0.89412962962963
6	377	10000	0.89410648148148
6	378	10000	0.89410648148148
6	378	10000	0.89410648148148
6	378	10000	0.89408333333333
6	383	10000	0.89402777777778
6	383	10000	0.89400462962963
6	419	11000	0.86268981481481
6	419	11000	0.86268981481481
6	419	11000	0.86202777777778
6	452	12000	0.83008333333333
6	452	12000	0.83006481481481
6	453	12000	0.83006481481481
6	453	12000	0.83006481481481
6	453	12000	0.8300462962963
6	488	13000	0.82071296296296
6	488	13000	0.82071296296296
6	488	13000	0.82030555555556
6	523	14000	0.81058333333333
6	523	14000	0.81056944444444
6	524	14000	0.81056944444444
6	524	14000	0.81056944444444
6	524	14000	0.81055555555556
6	557	15000	0.80990277777778
6	557	15000	0.80990277777778
6	557	15000	0.80984722222222
6	592	16000	0.80915277777778
6	592	16000	0.80912962962963
6	593	16000	0.80912962962963
6	593	16000	0.80912962962963
6	593	16000	0.80910648148148
6	628	17000	0.77780092592593
6	628	17000	0.77780092592593
6	628	17000	0.77713888888889
6	661	18000	0.74519444444444
6	661	18000	0.74517592592593
6	662	18000	0.74517592592593
6	662	18000	0.74517592592593
6	662	18000	0.74515740740741
6	697	19000	0.73582407407407
6	697	19000	0.73582407407407
6	697	19000	0.73541666666667
6	732	20000	0.72588888888889
6	732	20000	0.72567592592593
6	733	20000	0.72567592592593
6	733	20000	0.72566203703704
6	734	20000	0.72566203703704
6	734	20000	0.72566203703704
6	734	20000	0.72564814814815
6	739	20000	0.72559259259259
6	739	20000	0.7255787037037
6	773	21000	0.72491666666667
6	773	21000	0.72491666666667
6	773	21000	0.72486111111111
6	808	22000	0.72416666666667
6	808	22000	0.72414351851852
6	809	22000	0.72414351851852
6	809	22000	0.72414351851852
6	809	22000	0.72412037037037
6	844	23000	0.69281481481481
6	844	23000	0.69281481481481
6	844	23000	0.69215277777778
6	877	24000	0.66020833333333
6	877	24000	0.66018981481481
6	878	24000	0.66018981481481
6	878	24000	0.66018981481481
6	878	24000	0.6601712962963
6	913	25000	0.65083796296296
6	913	25000	0.65083796296296
6	913	25000	0.65043055555556
6	948	26000	0.64070833333333
6	948	26000	0.64069444444444
6	949	26000	0.64069444444444
6	949	26000	0.64069444444444
6	949	26000	0.64068055555556
6	982	27000	0.64002777777778
6	982	27000	0.64002777777778
6	982	27000	0.63997222222222
6	1017	28000	0.63927777777778
6	1017	28000	0.63925462962963
6	1018	28000	0.63925462962963
6	1018	28000	0.63925462962963
6	1018	28000	0.63923148148148
6	1053	29000	0.60792592592593
6	1053	29000	0.60792592592593
6	1053	29000	0.60726388888889
6	1086	30000	0.57723611111111
6	1086	30000	0.5752962962963
6	1087	30000	0.5752962962963
6	1087	30000	0.57527777777778
6	1088	30000	0.57527777777778
6	1088	30000	0.57527777777778
6	1088	30000	0.57525925925926
6	1093	30000	0.5752037037037
6	1093	30000	0.57518518518519
6	1129	31000	0.56584259259259
6	1129	31000	0.56584259259259
6	1129	31000	0.56543518518519
6	1164	32000	0.55571296296296
6	1164	32000	0.55569907407407
6	1165	32000	0.55569907407407
6	1165	32000	0.55569907407407
6	1165	32000	0.55568518518519
6	1198	33000	0.55503240740741
6	1198	33000	0.55503240740741
6	1198	33000	0.55497685185185
6	1233	34000	0.55428240740741
6	1233	34000	0.55425925925926
6	1234	34000	0.55425925925926
6	1234	34000	0.55425925925926
6	1234	34000	0.55423611111111
6	1269	35000	0.52293055555556
6	1269	35000	0.52293055555556
6	1269	35000	0.52226851851852
6	1302	36000	0.49032407407407
6	1302	36000	0.49030555555556
6	1303	36000	0.49030555555556
6	1303	36000	0.49030555555556
6	1303	36000	0.49028703703704
6	1338	37000	0.4809537037037
6	1338	37000	0.4809537037037
6	1338	37000	0.4805462962963
6	1373	38000	0.47082407407407
6	1373	38000	0.47081018518519
6	1374	38000	0.47081018518519
6	1374	38000	0.47081018518519
6	1374	38000	0.4707962962963
6	1407	39000	0.47014351851852
6	1407	39000	0.47014351851852
6	1407	39000	0.47008796296296
6	1442	40000	0.4694212962963
6	1442	40000	0.46937962962963
6	1443	40000	0.46937962962963
6	1443	40000	0.46935648148148
6	1444	40000	0.46935648148148
6	1444	40000	0.46935648148148
6	1444	40000	0.46933333333333
6	1449	40000	0.46927777777778
6	1449	40000	0.46925462962963
6	1485	41000	0.43793981481481
6	1485	41000	0.43793981481481
6	1485	41000	0.43727777777778
6	1518	42000	0.40533333333333
6	1518	42000	0.40531481481481
6	1519	42000	0.40531481481481
6	1519	42000	0.40531481481481
6	1519	42000	0.4052962962963
6	1554	43000	0.39596296296296
6	1554	43000	0.39596296296296
6	1554	43000	0.39555555555556
6	1589	44000	0.38583333333333
6	1589	44000	0.38581944444444
6	1590	44000	0.38581944444444
6	1590	44000	0.38581944444444
6	1590	44000	0.38580555555556
6	1623	45000	0.38515277777778
6	1623	45000	0.38515277777778
6	1623	45000	0.38509722222222
6	1658	46000	0.38440277777778
6	1658	46000	0.38437962962963
6	1659	46000	0.38437962962963
6	1659	46000	0.38437962962963
6	1659	46000	0.38435648148148
6	1694	47000	0.35305092592593
6	1694	47000	0.35305092592593
6	1694	47000	0.35238888888889
6	1727	48000	0.32044444444444
6	1727	48000	0.32042592592593
6	1728	48000	0.32042592592593
6	1728	48000	0.32042592592593
6	1728	48000	0.32040740740741
6	1763	49000	0.31107407407407
6	1763	49000	0.31107407407407
6	1763	49000	0.31066666666667
6	1798	50000	0.30113888888889
6	1798	50000	0.30092592592593
6	1799	50000	0.30092592592593
6	1799	50000	0.30091203703704
6	1800	50000	0.30091203703704
6	1800	50000	0.30091203703704
6	1800	50000	0.30089814814815
6	1805	50000	0.30084259259259
6	1805	50000	0.3008287037037
6	1839	51000	0.30016666666667
6	1839	51000	0.30016666666667
6	1839	51000	0.30011111111111
6	1874	52000	0.29941666666667
6	1874	52000	0.29939351851852
6	1875	52000	0.29939351851852
6	1875	52000	0.29939351851852
6	1875	52000	0.29937037037037
6	1910	53000	0.26806481481481
6	1910	53000	0.26806481481481
6	1910	53000	0.26740277777778
6	1943	54000	0.23545833333333
6	1943	54000	0.23543981481481
6	1944	54000	0.23543981481481
6	1944	54000	0.23543981481481
6	1944	54000	0.2354212962963
6	1979	55000	0.22608796296296
6	1979	55000	0.22608796296296
6	1979	55000	0.22568055555556
6	2014	56000	0.21595833333333
6	2014	56000	0.21594444444444
6	2015	56000	0.21594444444444
6	2015	56000	0.21594444444444
6	2015	56000	0.21593055555556
6	2048	57000	0.21527777777778
6	2048	57000	0.21527777777778
6	2048	57000	0.21522222222222
6	2083	58000	0.21452777777778
6	2083	58000	0.21450462962963
6	2084	58000	0.21450462962963
6	2084	58000	0.21450462962963
6	2084	58000	0.21448148148148
6	2119	59000	0.18317592592593
6	2119	59000	0.18317592592593
6	2119	59000	0.18251388888889
6	2152	60000	0.15248611111111
6	2152	60000	0.1505462962963
6	2153	60000	0.1505462962963
6	2153	60000	0.15052777777778
6	2154	60000	0.15052777777778
6	2154	60000	0.15052777777778
6	2154	60000	0.15050925925926
6	2159	60000	0.1504537037037
6	2159	60000	0.15043518518519
6	2195	61000	0.14109259259259
6	2195	61000	0.14109259259259
6	2195	61000	0.14068518518519
6	2230	62000	0.13096296296296
6	2230	62000	0.13094907407407
6	2231	62000	0.13094907407407
6	2231	62000	0.13094907407407
6	2231	62000	0.13093518518519
6	2264	63000	0.13028240740741
6	2264	63000	0.13028240740741
6	2264	63000	0.13022685185185
6	2299	64000	0.12953240740741
6	2299	64000	0.12950925925926
6	2300	64000	0.12950925925926
6	2300	64000	0.12950925925926
6	2300	64000	0.12948611111111
6	2335	65000	0.098180555555556
6	2335	65000	0.098180555555556
6	2335	65000	0.097518518518519
6	2368	66000	0.065574074074074
6	2368	66000	0.065555555555556
6	2369	66000	0.065555555555556
6	2369	66000	0.065555555555556
6	2369	66000	0.065537037037037
6	2404	67000	0.056203703703704
6	2404	67000	0.056203703703704
6	2404	67000	0.055796296296296
6	2439	68000	0.046074074074074
6	2439	68000	0.046060185185185
6	2440	68000	0.046060185185185
6	2440	68000	0.046060185185185
6	2440	68000	0.046046296296296
6	2473	69000	0.045393518518519
6	2473	69000	0.045393518518519
6	2473	69000	0.045337962962963
6	2508	70000	0.044671296296296
6	2508	70000	0.04462962962963
6	2509	70000	0.04462962962963
6	2509	70000	0.044606481481481
6	2510	70000	0.044606481481481
6	2510	70000	0.044606481481481
6	2510	70000	0.044583333333333
6	2515	70000	0.044527777777778
6	2515	70000	0.04450462962963
6	2551	71000	0.013189814814815
6	2551	71000	0.013189814814815
6	2551	71000	0.012527777777778
7	0	0	10800000
7	4	0	10799500
7	4	0	10799300
7	63	1000	10698400
7	63	1000	10698400
7	63	1000	10694000
7	98	2000	10589000
7	98	2000	10588850
7	99	2000	10588850
7	99	2000	10588850
7	99	2000	10588700
7	132	3000	10581650
7	132	3000	10581650
7	132	3000	10581050
7	167	4000	10573550
7	167	4000	10573300
7	168	4000	10573300
7	168	4000	10573300
7	168	4000	10573050
7	203	5000	10234950
7	203	5000	10234950
7	203	5000	10227800
7	236	6000	9882800
7	236	6000	9882600
7	237	6000	9882600
7	237	6000	9882600
7	237	6000	9882400
7	272	7000	9781600
7	272	7000	9781600
7	272	7000	9777200
7	307	8000	9672200
7	307	8000	9672050
7	308	8000	9672050
7	308	8000	9672050
7	308	8000	9671900
7	341	9000	9664850
7	341	9000	9664850
7	341	9000	9664250
7	376	10000	9657050
7	376	10000	9656600
7	377	10000	9656600
7	377	10000	9656350
7	378	10000	9656350
7	378	10000	9656350
7	378	10000	9656100
7	383	10000	9655500
7	383	10000	9655250
7	419	11000	9317050
7	419	11000	9317050
7	419	11000	9309900
7	452	12000	8964900
7	452	12000	8964700
7	453	12000	8964700
7	453	12000	8964700
7	453	12000	8964500
7	488	13000	8863700
7	488	13000	8863700
7	488	13000	8859300
7	523	14000	8754300
7	523	14000	8754150
7	524	14000	8754150
7	524	14000	8754150
7	524	14000	8754000
7	557	15000	8746950
7	557	15000	8746950
7	557	15000	8746350
7	592	16000	8738850
7	592	16000	8738600
7	593	16000	8738600
7	593	16000	8738600
7	593	16000	8738350
7	628	17000	8400250
7	628	17000	8400250
7	628	17000	8393100
7	661	18000	8048100
7	661	18000	8047900
7	662	18000	8047900
7	662	18000	8047900
7	662	18000	8047700
7	697	19000	7946900
7	697	19000	7946900
7	697	19000	7942500
7	732	20000	7839600
7	732	20000	7837300
7	733	20000	7837300
7	733	20000	7837150
7	734	20000	7837150
7	734	20000	7837150
7	734	20000	7837000
7	739	20000	7836400
7	739	20000	7836250
7	773	21000	7829100
7	773	21000	7829100
7	773	21000	7828500
7	808	22000	7821000
7	808	22000	7820750
7	809	22000	7820750
7	809	22000	7820750
7	809	22000	7820500
7	844	23000	7482400
7	844	23000	7482400
7	844	23000	7475250
7	877	24000	7130250
7	877	24000	7130050
7	878	24000	7130050
7	878	24000	7130050
7	878	24000	7129850
7	913	25000	7029050
7	913	25000	7029050
7	913	25000	7024650
7	948	26000	6919650
7	948	26000	6919500
7	949	26000	6919500
7	949	26000	6919500
7	949	26000	6919350
7	982	27000	6912300
7	982	27000	6912300
7	982	27000	6911700
7	1017	28000	6904200
7	1017	28000	6903950
7	1018	28000	6903950
7	1018	28000	6903950
7	1018	28000	6903700
7	1053	29000	6565600
7	1053	29000	6565600
7	1053	29000	6558450
7	1086	30000	6234150
7	1086	30000	6213200
7	1087	30000	6213200
7	1087	30000	6213000
7	1088	30000	6213000
7	1088	30000	6213000
7	1088	30000	6212800
7	1093	30000	6212200
7	1093	30000	6212000
7	1129	31000	6111100
7	1129	31000	6111100
7	1129	31000	6106700
7	1164	32000	6001700
7	1164	32000	6001550
7	1165	32000	6001550
7	1165	32000	6001550
7	1165	32000	6001400
7	1198	33000	5994350
7	1198	33000	5994350
7	1198	33000	5993750
7	1233	34000	5986250
7	1233	34000	5986000
7	1234	34000	5986000
7	1234	34000	5986000
7	1234	34000	5985750
7	1269	35000	5647650
7	1269	35000	5647650
7	1269	35000	5640500
7	1302	36000	5295500
7	1302	36000	5295300
7	1303	36000	5295300
7	1303	36000	5295300
7	1303	36000	5295100
7	1338	37000	5194300
7	1338	37000	5194300
7	1338	37000	5189900
7	1373	38000	5084900
7	1373	38000	5084750
7	1374	38000	5084750
7	1374	38000	5084750
7	1374	38000	5084600
7	1407	39000	5077550
7	1407	39000	5077550
7	1407	39000	5076950
7	1442	40000	5069750
7	1442	40000	5069300
7	1443	40000	5069300
7	1443	40000	5069050
7	1444	40000	5069050
7	1444	40000	5069050
7	1444	40000	5068800
7	1449	40000	5068200
7	1449	40000	5067950
7	1485	41000	4729750
7	1485	41000	4729750
7	1485	41000	4722600
7	1518	42000	4377600
7	1518	42000	4377400
7	1519	42000	4377400
7	1519	42000	4377400
7	1519	42000	4377200
7	1554	43000	4276400
7	1554	43000	4276400
7	1554	43000	4272000
7	1589	44000	4167000
7	1589	44000	4166850
7	1590	44000	4166850
7	1590	44000	4166850
7	1590	44000	4166700
7	1623	45000	4159650
7	1623	45000	4159650
7	1623	45000	4159050
7	1658	46000	4151550
7	1658	46000	4151300
7	1659	46000	4151300
7	1659	46000	4151300
7	1659	46000	4151050
7	1694	47000	3812950
7	1694	47000	3812950
7	1694	47000	3805800
7	1727	48000	3460800
7	1727	48000	3460600
7	1728	48000	3460600
7	1728	48000	3460600
7	1728	48000	3460400
7	1763	49000	3359600
7	1763	49000	3359600
7	1763	49000	3355200
7	1798	50000	3252300
7	1798	50000	3250000
7	1799	50000	3250000
7	1799	50000	3249850
7	1800	50000	3249850
7	1800	50000	3249850
7	1800	50000	3249700
7	1805	50000	3249100
7	1805	50000	3248950
7	1839	51000	3241800
7	1839	51000	3241800
7	1839	51000	3241200
7	1874	52000	3233700
7	1874	52000	3233450
7	1875	52000	3233450
7	1875	52000	3233450
7	1875	52000	3233200
7	1910	53000	2895100
7	1910	53000	2895100
7	1910	53000	2887950
7	1943	54000	2542950
7	1943	54000	2542750
7	1944	54000	2542750
7	1944	54000	2542750
7	1944	54000	2542550
7	1979	55000	2441750
7	1979	55000	2441750
7	1979	55000	2437350
7	2014	56000	2332350
7	2014	56000	2332200
7	2015	56000	2332200
7	2015	56000	2332200
7	2015	56000	2332050
7	2048	57000	2325000
7	2048	57000	2325000
7	2048	57000	2324400
7	2083	58000	2316900
7	2083	58000	2316650
7	2084	58000	2316650
7	2084	58000	2316650
7	2084	58000	2316400
7	2119	59000	1978300
7	2119	59000	1978300
7	2119	59000	1971150
7	2152	60000	1646850
7	2152	60000	1625900
7	2153	60000	1625900
7	2153	60000	1625700
7	2154	60000	1625700
7	2154	60000	1625700
7	2154	60000	1625500
7	2159	60000	1624900
7	2159	60000	1624700
7	2195	61000	1523800
7	2195	61000	1523800
7	2195	61000	1519400
7	2230	62000	1414400
7	2230	62000	1414250
7	2231	62000	1414250
7	2231	62000	1414250
7	2231	62000	1414100
7	2264	63000	1407050
7	2264	63000	1407050
7	2264	63000	1406450
7	2299	64000	1398950
7	2299	64000	1398700
7	2300	64000	1398700
7	2300	64000	1398700
7	2300	64000	1398450
7	2335	65000	1060350
7	2335	65000	1060350
7	2335	65000	1053200
7	2368	66000	708200
7	2368	66000	708000
7	2369	66000	708000
7	2369	66000	708000
7	2369	66000	707800
7	2404	67000	607000
7	2404	67000	607000
7	2404	67000	602600
7	2439	68000	497600
7	2439	68000	497450
7	2440	68000	497450
7	2440	68000	497450
7	2440	68000	497300
7	2473	69000	490250
7	2473	69000	490250
7	2473	69000	489650
7	2508	70000	482450
7	2508	70000	482000
7	2509	70000	482000
7	2509	70000	481750
7	2510	70000	481750
7	2510	70000	481750
7	2510	70000	481500
7	2515	70000	480900
7	2515	70000	480650
7	2551	71000	142450
7	2551	71000	142450
7	2551	71000	135300
8	0	0	100
8	0	0	100
8	0	0	100
8	379	10000	100
8	379	10000	100
8	379	10000	100
8	735	20000	100
8	735	20000	100
8	735	20000	100
8	1089	30000	100
8	1089	30000	100
8	1089	30000	100
8	1445	40000	100
8	1445	40000	100
8	1445	40000	100
8	1801	50000	100
8	1801	50000	100
8	1801	50000	100
8	2155	60000	100
8	2155	60000	100
8	2155	60000	100
8	2511	70000	100
8	2511	70000	100
8	2511	70000	100
9	0	0	3
9	98	2000	0.3
9	167	4000	3
9	236	6000	3
9	307	8000	0.3
9	377	10000	3
9	452	12000	3
9	523	14000	0.3
9	592	16000	3
9	661	18000	3
9	733	20000	0.3
9	808	22000	3
9	877	24000	3
9	948	26000	0.3
9	1017	28000	3
9	1087	30000	3
9	1164	32000	0.3
9	1233	34000	3
9	1302	36000	3
9	1373	38000	0.3
9	1443	40000	3
9	1518	42000	3
9	1589	44000	0.3
9	1658	46000	3
9	1727	48000	3
9	1799	50000	0.3
9	1874	52000	3
9	1943	54000	3
9	2014	56000	0.3
9	2083	58000	3
9	2153	60000	3
9	2230	62000	0.3
9	2299	64000	3
9	2368	66000	3
9	2439	68000	0.3
9	2509	70000	3
10	0	0	100
10	1	0	100
10	380	10000	100
10	736	20000	100
10	1090	30000	100
10	1446	40000	100
10	1802	50000	100
10	2156	60000	100
10	2512	70000	100
11	0	0	3
11	98	2000	0.3
11	167	4000	3
11	236	6000	3
11	307	8000	0.3
11	377	10000	3
11	452	12000	3
11	523	14000	0.3
11	592	16000	3
11	661	18000	3
11	733	20000	0.3
11	808	22000	3
11	877	24000	3
11	948	26000	0.3
11	1017	28000	3
11	1087	30000	3
11	1164	32000	0.3
11	1233	34000	3
11	1302	36000	3
11	1373	38000	0.3
11	1443	40000	3
11	1518	42000	3
11	1589	44000	0.3
11	1658	46000	3
11	1727	48000	3
11	1799	50000	0.3
11	1874	52000	3
11	1943	54000	3
11	2014	56000	0.3
11	2083	58000	3
11	2153	60000	3
11	2230	62000	0.3
11	2299	64000	3
11	2368	66000	3
11	2439	68000	0.3
11	2509	70000	3
12	0	0	100
12	2	0	100
12	381	10000	100
12	737	20000	100
12	1091	30000	100
12	1447	40000	100
12	1803	50000	100
12	2157	60000	100
12	2513	70000	100
13	0	0	3
13	98	2000	0.3
13	167	4000	3
13	236	6000	3
13	307	8000	0.3
13	377	10000	3
13	452	12000	3
13	523	14000	0.3
13	592	16000	3
13	661	18000	3
13	733	20000	0.3
13	808	22000	3
13	877	24000	3
13	948	26000	0.3
13	1017	28000	3
13	1087	30000	3
13	1164	32000	0.3
13	1233	34000	3
13	1302	36000	3
13	1373	38000	0.3
13	1443	40000	3
13	1518	42000	3
13	1589	44000	0.3
13	1658	46000	3
13	1727	48000	3
13	1799	50000	0.3
13	1874	52000	3
13	1943	54000	3
13	2014	56000	0.3
13	2083	58000	3
13	2153	60000	3
13	2230	62000	0.3
13	2299	64000	3
13	2368	66000	3
13	2439	68000	0.3
13	2509	70000	3
14	0	0	100
14	3	0	100
14	382	10000	100
14	738	20000	100
14	1092	30000	100
14	1448	40000	100
14	1804	50000	100
14	2158	60000	100
14	2514	70000	100
15	0	0	3
15	98	2000	0.3
15	167	4000	3
15	236	6000	3
15	307	8000	0.3
15	377	10000	3
15	452	12000	3
15	523	14000	0.3
15	592	16000	3
15	661	18000	3
15	733	20000	0.3
15	808	22000	3
15	877	24000	3
15	948	26000	0.3
15	1017	28000	3
15	1087	30000	3
15	1164	32000	0.3
15	1233	34000	3
15	1302	36000	3
15	1373	38000	0.3
15	1443	40000	3
15	1518	42000	3
15	1589	44000	0.3
15	1658	46000	3
15	1727	48000	3
15	1799	50000	0.3
15	1874	52000	3
15	1943	54000	3
15	2014	56000	0.3
15	2083	58000	3
15	2153	60000	3
15	2230	62000	0.3
15	2299	64000	3
15	2368	66000	3
15	2439	68000	0.3
15	2509	70000	3
16	0	0	100
16	5	0	100
16	384	10000	100
16	740	20000	100
16	1094	30000	100
16	1450	40000	100
16	1806	50000	100
16	2160	60000	100
16	2516	70000	100
17	0	0	3
17	98	2000	0.3
17	167	4000	3
17	236	6000	3
17	307	8000	0.3
17	377	10000	3
17	452	12000	3
17	523	14000	0.3
17	592	16000	3
17	661	18000	3
17	733	20000	0.3
17	808	22000	3
17	877	24000	3
17	948	26000	0.3
17	1017	28000	3
17	1087	30000	3
17	1164	32000	0.3
17	1233	34000	3
17	1302	36000	3
17	1373	38000	0.3
17	1443	40000	3
17	1518	42000	3
17	1589	44000	0.3
17	1658	46000	3
17	1727	48000	3
17	1799	50000	0.3
17	1874	52000	3
17	1943	54000	3
17	2014	56000	0.3
17	2083	58000	3
17	2153	60000	3
17	2230	62000	0.3
17	2299	64000	3
17	2368	66000	3
17	2439	68000	0.3
17	2509	70000	3
