version 2
run General-0-20150722-10:45:36-5095
attr configname General
attr datetime 20150722-10:45:36
attr experiment General
attr inifile omnetpp.ini
attr iterationvars ""
attr iterationvars2 $repetition=0
attr measurement ""
attr network SensorExample
attr processid 5095
attr repetition 0
attr replication #0
attr resultdir results
attr runnumber 0
attr seedset 0

vector 3  SensorExample.TNode.Processor  "power mode"  ETV
vector 4  SensorExample.TNode.Processor  "Sensor Modules Status"  ETV
vector 5  SensorExample.TNode.Processor  Voltage  ETV
vector 6  SensorExample.TNode.Processor  residualRelative  ETV
vector 7  SensorExample.TNode.Processor  residualAbs  ETV
vector 8  SensorExample.TNode.TemperatureSensor.SensingUnit  "Energy Consumptions"  ETV
vector 9  SensorExample.TNode.TemperatureSensor.SensingUnit  "Current use over time"  ETV
vector 10  SensorExample.TNode.TemperatureSensor.SignalConditioner  "Energy Consumptions"  ETV
vector 11  SensorExample.TNode.TemperatureSensor.SignalConditioner  "Current use over time"  ETV
vector 12  SensorExample.TNode.TemperatureSensor.SignalConverter  "Energy Consumptions"  ETV
vector 13  SensorExample.TNode.TemperatureSensor.SignalConverter  "Current use over time"  ETV
vector 14  SensorExample.TNode.TemperatureSensor.Transducer  "Energy Consumptions"  ETV
vector 15  SensorExample.TNode.TemperatureSensor.Transducer  "Current use over time"  ETV
vector 16  SensorExample.TNode.Memory  "Energy Consumptions"  ETV
vector 17  SensorExample.TNode.Memory  "Current use over time"  ETV
3	0	0	0
3	0	0	0
3	130	3000	1
3	233	6000	2
3	336	9000	0
3	336	9000	0
3	446	12000	1
3	549	15000	2
3	652	18000	0
3	652	18000	0
3	762	21000	1
3	865	24000	2
3	968	27000	0
3	968	27000	0
4	0	0	0
4	4	0	0
4	371	10000	1
4	376	10000	0
4	722	20000	1
4	727	20000	0
5	0	0	3
5	4	0	3
5	4	0	3
5	87	1700	3
5	87	1700	3
5	87	1700	3
5	130	3000	3
5	130	3000	3
5	145	3400	3
5	145	3400	3
5	145	3400	3
5	202	5100	3
5	202	5100	3
5	202	5100	3
5	233	6000	3
5	233	6000	3
5	262	6800	3
5	262	6800	3
5	262	6800	3
5	319	8500	3
5	319	8500	3
5	319	8500	3
5	336	9000	3
5	336	9000	3
5	371	10000	3
5	371	10000	3
5	376	10000	3
5	376	10000	3
5	384	10200	3
5	384	10200	3
5	384	10200	3
5	443	11900	3
5	443	11900	3
5	443	11900	3
5	446	12000	3
5	446	12000	3
5	502	13600	3
5	502	13600	3
5	502	13600	3
5	549	15000	3
5	549	15000	3
5	560	15300	3
5	560	15300	3
5	560	15300	3
5	619	17000	3
5	619	17000	3
5	619	17000	3
5	652	18000	3
5	652	18000	3
5	677	18700	3
5	677	18700	3
5	677	18700	3
5	722	20000	3
5	722	20000	3
5	727	20000	3
5	727	20000	3
5	741	20400	3
5	741	20400	3
5	741	20400	3
5	762	21000	3
5	762	21000	3
5	801	22100	3
5	801	22100	3
5	801	22100	3
5	858	23800	3
5	858	23800	3
5	858	23800	3
5	865	24000	3
5	865	24000	3
5	916	25500	3
5	916	25500	3
5	916	25500	3
5	968	27000	3
5	968	27000	3
5	977	27200	3
5	977	27200	3
5	977	27200	3
6	0	0	1
6	4	0	0.9999537037037
6	4	0	0.99993518518519
6	87	1700	0.98359259259259
6	87	1700	0.98359259259259
6	87	1700	0.98337962962963
6	130	3000	0.97074074074074
6	130	3000	0.97072685185185
6	145	3400	0.97047685185185
6	145	3400	0.97047685185185
6	145	3400	0.97043518518519
6	202	5100	0.9692962962963
6	202	5100	0.9692962962963
6	202	5100	0.96924074074074
6	233	6000	0.96861574074074
6	233	6000	0.96859259259259
6	262	6800	0.94367592592593
6	262	6800	0.94367592592593
6	262	6800	0.94301388888889
6	319	8500	0.88998611111111
6	319	8500	0.88998611111111
6	319	8500	0.88868518518519
6	336	9000	0.87271296296296
6	336	9000	0.87269444444444
6	371	10000	0.86336111111111
6	371	10000	0.8629537037037
6	376	10000	0.86289814814815
6	376	10000	0.86287962962963
6	384	10200	0.86150925925926
6	384	10200	0.86150925925926
6	384	10200	0.86090740740741
6	443	11900	0.84457407407407
6	443	11900	0.84457407407407
6	443	11900	0.84436111111111
6	446	12000	0.84338888888889
6	446	12000	0.843375
6	502	13600	0.84229166666667
6	502	13600	0.84229166666667
6	502	13600	0.84225
6	549	15000	0.84127777777778
6	549	15000	0.84125462962963
6	560	15300	0.83358796296296
6	560	15300	0.83358796296296
6	560	15300	0.83164814814815
6	619	17000	0.77798148148148
6	619	17000	0.77798148148148
6	619	17000	0.77731944444444
6	652	18000	0.745375
6	652	18000	0.74535648148148
6	677	18700	0.73893981481481
6	677	18700	0.73893981481481
6	677	18700	0.73853240740741
6	722	20000	0.72608796296296
6	722	20000	0.725875
6	727	20000	0.72581944444444
6	727	20000	0.72580092592593
6	741	20400	0.72248611111111
6	741	20400	0.72248611111111
6	741	20400	0.72188425925926
6	762	21000	0.71605092592593
6	762	21000	0.71603703703704
6	801	22100	0.71528703703704
6	801	22100	0.71528703703704
6	801	22100	0.71525925925926
6	858	23800	0.71410648148148
6	858	23800	0.71410648148148
6	858	23800	0.71406481481481
6	865	24000	0.71392592592593
6	865	24000	0.71390277777778
6	916	25500	0.66790277777778
6	916	25500	0.66790277777778
6	916	25500	0.66596296296296
6	968	27000	0.6180462962963
6	968	27000	0.61802777777778
6	977	27200	0.61627777777778
6	977	27200	0.61627777777778
6	977	27200	0.61606481481481
7	0	0	10800000
7	4	0	10799500
7	4	0	10799300
7	87	1700	10622800
7	87	1700	10622800
7	87	1700	10620500
7	130	3000	10484000
7	130	3000	10483850
7	145	3400	10481150
7	145	3400	10481150
7	145	3400	10480700
7	202	5100	10468400
7	202	5100	10468400
7	202	5100	10467800
7	233	6000	10461050
7	233	6000	10460800
7	262	6800	10191700
7	262	6800	10191700
7	262	6800	10184550
7	319	8500	9611850
7	319	8500	9611850
7	319	8500	9597800
7	336	9000	9425300
7	336	9000	9425100
7	371	10000	9324300
7	371	10000	9319900
7	376	10000	9319300
7	376	10000	9319100
7	384	10200	9304300
7	384	10200	9304300
7	384	10200	9297800
7	443	11900	9121400
7	443	11900	9121400
7	443	11900	9119100
7	446	12000	9108600
7	446	12000	9108450
7	502	13600	9096750
7	502	13600	9096750
7	502	13600	9096300
7	549	15000	9085800
7	549	15000	9085550
7	560	15300	9002750
7	560	15300	9002750
7	560	15300	8981800
7	619	17000	8402200
7	619	17000	8402200
7	619	17000	8395050
7	652	18000	8050050
7	652	18000	8049850
7	677	18700	7980550
7	677	18700	7980550
7	677	18700	7976150
7	722	20000	7841750
7	722	20000	7839450
7	727	20000	7838850
7	727	20000	7838650
7	741	20400	7802850
7	741	20400	7802850
7	741	20400	7796350
7	762	21000	7733350
7	762	21000	7733200
7	801	22100	7725100
7	801	22100	7725100
7	801	22100	7724800
7	858	23800	7712350
7	858	23800	7712350
7	858	23800	7711900
7	865	24000	7710400
7	865	24000	7710150
7	916	25500	7213350
7	916	25500	7213350
7	916	25500	7192400
7	968	27000	6674900
7	968	27000	6674700
7	977	27200	6655800
7	977	27200	6655800
7	977	27200	6653500
8	0	0	100
8	0	0	100
8	0	0	100
8	372	10000	100
8	372	10000	100
8	372	10000	100
8	723	20000	100
8	723	20000	100
8	723	20000	100
9	0	0	3
9	130	3000	0.3
9	233	6000	3
9	336	9000	3
9	446	12000	0.3
9	549	15000	3
9	652	18000	3
9	762	21000	0.3
9	865	24000	3
9	968	27000	3
10	0	0	100
10	1	0	100
10	373	10000	100
10	724	20000	100
11	0	0	3
11	130	3000	0.3
11	233	6000	3
11	336	9000	3
11	446	12000	0.3
11	549	15000	3
11	652	18000	3
11	762	21000	0.3
11	865	24000	3
11	968	27000	3
12	0	0	100
12	2	0	100
12	374	10000	100
12	725	20000	100
13	0	0	3
13	130	3000	0.3
13	233	6000	3
13	336	9000	3
13	446	12000	0.3
13	549	15000	3
13	652	18000	3
13	762	21000	0.3
13	865	24000	3
13	968	27000	3
14	0	0	100
14	3	0	100
14	375	10000	100
14	726	20000	100
15	0	0	3
15	130	3000	0.3
15	233	6000	3
15	336	9000	3
15	446	12000	0.3
15	549	15000	3
15	652	18000	3
15	762	21000	0.3
15	865	24000	3
15	968	27000	3
16	0	0	100
16	5	0	100
16	377	10000	100
16	728	20000	100
17	0	0	3
17	130	3000	0.3
17	233	6000	3
17	336	9000	3
17	446	12000	0.3
17	549	15000	3
17	652	18000	3
17	762	21000	0.3
17	865	24000	3
17	968	27000	3
