version 2
run General-0-20150513-12:48:58-8152
attr configname General
attr datetime 20150513-12:48:58
attr experiment General
attr inifile omnetpp.ini
attr iterationvars ""
attr iterationvars2 $repetition=0
attr measurement ""
attr network SensorExample
attr processid 8152
attr repetition 0
attr replication #0
attr resultdir results
attr runnumber 0
attr seedset 0

vector 3  SensorExample.TNode.Processor  "power mode"  ETV
vector 4  SensorExample.TNode.Processor  Voltage  ETV
vector 5  SensorExample.TNode.Processor  residualRelative  ETV
vector 6  SensorExample.TNode.Processor  residualAbs  ETV
3	0	0	0
3	0	0	0
4	0	0	3
4	4	0	3
4	4	0	3
4	63	1000	3
4	63	1000	3
4	63	1000	3
4	98	2000	3
4	98	2000	3
4	98	2000	3
4	131	3000	3
4	131	3000	3
4	131	3000	3
4	166	4000	3
4	166	4000	3
4	166	4000	3
4	201	5000	3
4	201	5000	3
4	201	5000	3
4	234	6000	3
4	234	6000	3
4	234	6000	3
4	269	7000	3
4	269	7000	3
4	269	7000	3
4	304	8000	3
4	304	8000	3
4	304	8000	3
4	337	9000	3
4	337	9000	3
4	337	9000	3
4	372	10000	3
4	372	10000	3
4	373	10000	3
4	373	10000	3
4	373	10000	3
4	378	10000	3
4	378	10000	3
4	414	11000	3
4	414	11000	3
4	414	11000	3
4	447	12000	3
4	447	12000	3
4	447	12000	3
4	482	13000	3
4	482	13000	3
4	482	13000	3
4	517	14000	3
4	517	14000	3
4	517	14000	3
4	550	15000	3
4	550	15000	3
4	550	15000	3
4	585	16000	3
4	585	16000	3
4	585	16000	3
4	620	17000	3
4	620	17000	3
4	620	17000	3
4	653	18000	3
4	653	18000	3
4	653	18000	3
4	688	19000	3
4	688	19000	3
4	688	19000	3
4	723	20000	3
4	723	20000	3
4	724	20000	3
4	724	20000	3
4	724	20000	3
4	729	20000	3
4	729	20000	3
4	763	21000	3
4	763	21000	3
4	763	21000	3
4	798	22000	3
4	798	22000	3
4	798	22000	3
4	833	23000	3
4	833	23000	3
4	833	23000	3
4	866	24000	3
4	866	24000	3
4	866	24000	3
4	901	25000	3
4	901	25000	3
4	901	25000	3
4	936	26000	3
4	936	26000	3
4	936	26000	3
4	969	27000	3
4	969	27000	3
4	969	27000	3
4	1004	28000	3
4	1004	28000	3
4	1004	28000	3
4	1039	29000	3
4	1039	29000	3
4	1039	29000	3
4	1072	30000	3
4	1072	30000	3
4	1073	30000	3
4	1073	30000	3
4	1073	30000	3
4	1078	30000	3
4	1078	30000	3
4	1114	31000	3
4	1114	31000	3
4	1114	31000	3
4	1149	32000	3
4	1149	32000	3
4	1149	32000	3
4	1182	33000	3
4	1182	33000	3
4	1182	33000	3
4	1217	34000	3
4	1217	34000	3
4	1217	34000	3
4	1252	35000	3
4	1252	35000	3
4	1252	35000	3
4	1285	36000	3
4	1285	36000	3
4	1285	36000	3
4	1320	37000	3
4	1320	37000	3
4	1320	37000	3
4	1355	38000	3
4	1355	38000	3
4	1355	38000	3
4	1388	39000	3
4	1388	39000	3
4	1388	39000	3
4	1423	40000	3
4	1423	40000	3
4	1424	40000	3
4	1424	40000	3
4	1424	40000	3
4	1429	40000	3
4	1429	40000	3
4	1465	41000	3
4	1465	41000	3
4	1465	41000	3
4	1498	42000	3
4	1498	42000	3
4	1498	42000	3
4	1533	43000	3
4	1533	43000	3
4	1533	43000	3
4	1568	44000	3
4	1568	44000	3
4	1568	44000	3
4	1601	45000	3
4	1601	45000	3
4	1601	45000	3
4	1636	46000	3
4	1636	46000	3
4	1636	46000	3
4	1671	47000	3
4	1671	47000	3
4	1671	47000	3
4	1704	48000	3
4	1704	48000	3
4	1704	48000	3
4	1739	49000	3
4	1739	49000	3
4	1739	49000	3
4	1774	50000	3
4	1774	50000	3
4	1775	50000	3
4	1775	50000	3
4	1775	50000	3
4	1780	50000	3
4	1780	50000	3
4	1814	51000	3
4	1814	51000	3
4	1814	51000	3
4	1849	52000	3
4	1849	52000	3
4	1849	52000	3
4	1884	53000	3
4	1884	53000	3
4	1884	53000	3
4	1917	54000	3
4	1917	54000	3
4	1917	54000	3
4	1952	55000	3
4	1952	55000	3
4	1952	55000	3
4	1987	56000	3
4	1987	56000	3
4	1987	56000	3
4	2020	57000	3
4	2020	57000	3
4	2020	57000	3
4	2055	58000	3
4	2055	58000	3
4	2055	58000	3
4	2090	59000	3
4	2090	59000	3
4	2090	59000	3
4	2123	60000	3
4	2123	60000	3
4	2124	60000	3
4	2124	60000	3
4	2124	60000	3
4	2129	60000	3
4	2129	60000	3
4	2165	61000	3
4	2165	61000	3
4	2165	61000	3
4	2200	62000	3
4	2200	62000	3
4	2200	62000	3
4	2233	63000	3
4	2233	63000	3
4	2233	63000	3
4	2268	64000	3
4	2268	64000	3
4	2268	64000	3
4	2303	65000	3
4	2303	65000	3
4	2303	65000	3
4	2336	66000	3
4	2336	66000	3
4	2336	66000	3
4	2371	67000	3
4	2371	67000	3
4	2371	67000	3
4	2406	68000	3
4	2406	68000	3
4	2406	68000	3
4	2439	69000	3
4	2439	69000	3
4	2439	69000	3
4	2474	70000	3
4	2474	70000	3
4	2475	70000	3
4	2475	70000	3
4	2475	70000	3
4	2480	70000	3
4	2480	70000	3
4	2516	71000	3
4	2516	71000	3
4	2516	71000	3
4	2549	72000	3
4	2549	72000	3
4	2549	72000	3
4	2584	73000	3
4	2584	73000	3
4	2584	73000	3
4	2619	74000	3
4	2619	74000	3
4	2619	74000	3
4	2652	75000	3
4	2652	75000	3
4	2652	75000	3
4	2687	76000	3
4	2687	76000	3
4	2687	76000	3
4	2722	77000	3
4	2722	77000	3
4	2722	77000	3
4	2755	78000	3
4	2755	78000	3
4	2755	78000	3
4	2790	79000	3
4	2790	79000	3
4	2790	79000	3
4	2825	80000	3
4	2825	80000	3
4	2826	80000	3
4	2826	80000	3
4	2826	80000	3
4	2831	80000	3
4	2831	80000	3
4	2865	81000	3
4	2865	81000	3
4	2865	81000	3
4	2900	82000	3
4	2900	82000	3
4	2900	82000	3
4	2935	83000	3
4	2935	83000	3
4	2935	83000	3
4	2968	84000	3
4	2968	84000	3
4	2968	84000	3
4	3003	85000	3
4	3003	85000	3
4	3003	85000	3
4	3038	86000	3
4	3038	86000	3
4	3038	86000	3
4	3071	87000	3
4	3071	87000	3
4	3071	87000	3
4	3106	88000	3
4	3106	88000	3
4	3106	88000	3
4	3141	89000	3
4	3141	89000	3
4	3141	89000	3
4	3174	90000	3
4	3174	90000	3
4	3175	90000	3
4	3175	90000	3
4	3175	90000	3
4	3180	90000	3
4	3180	90000	3
4	3216	91000	3
4	3216	91000	3
4	3216	91000	3
4	3251	92000	3
4	3251	92000	3
4	3251	92000	3
4	3284	93000	3
4	3284	93000	3
4	3284	93000	3
4	3319	94000	3
4	3319	94000	3
4	3319	94000	3
4	3354	95000	3
4	3354	95000	3
4	3354	95000	3
4	3387	96000	3
4	3387	96000	3
4	3387	96000	3
4	3422	97000	3
4	3422	97000	3
4	3422	97000	3
4	3457	98000	3
4	3457	98000	3
4	3457	98000	3
4	3490	99000	3
4	3490	99000	3
4	3490	99000	3
4	3525	100000	3
4	3525	100000	3
4	3526	100000	3
4	3526	100000	3
4	3526	100000	3
4	3531	100000	3
4	3531	100000	3
4	3567	101000	3
4	3567	101000	3
4	3567	101000	3
4	3600	102000	3
4	3600	102000	3
4	3600	102000	3
5	0	0	1
5	4	0	0.9999537037037
5	4	0	0.99993518518519
5	63	1000	0.99059259259259
5	63	1000	0.99059259259259
5	63	1000	0.99018518518519
5	98	2000	0.98065740740741
5	98	2000	0.98065740740741
5	98	2000	0.98044444444444
5	131	3000	0.97130555555556
5	131	3000	0.97130555555556
5	131	3000	0.9707037037037
5	166	4000	0.96137037037037
5	166	4000	0.96137037037037
5	166	4000	0.96096296296296
5	201	5000	0.95143518518519
5	201	5000	0.95143518518519
5	201	5000	0.95122222222222
5	234	6000	0.94208333333333
5	234	6000	0.94208333333333
5	234	6000	0.94148148148148
5	269	7000	0.93214814814815
5	269	7000	0.93214814814815
5	269	7000	0.93174074074074
5	304	8000	0.92221296296296
5	304	8000	0.92221296296296
5	304	8000	0.922
5	337	9000	0.91286111111111
5	337	9000	0.91286111111111
5	337	9000	0.91225925925926
5	372	10000	0.90292592592593
5	372	10000	0.90251851851852
5	373	10000	0.90251851851852
5	373	10000	0.90251851851852
5	373	10000	0.9025
5	378	10000	0.90244444444444
5	378	10000	0.90242592592593
5	414	11000	0.89288888888889
5	414	11000	0.89288888888889
5	414	11000	0.89267592592593
5	447	12000	0.88353703703704
5	447	12000	0.88353703703704
5	447	12000	0.88293518518519
5	482	13000	0.87360185185185
5	482	13000	0.87360185185185
5	482	13000	0.87319444444444
5	517	14000	0.86366666666667
5	517	14000	0.86366666666667
5	517	14000	0.8634537037037
5	550	15000	0.85431481481481
5	550	15000	0.85431481481481
5	550	15000	0.85371296296296
5	585	16000	0.84437962962963
5	585	16000	0.84437962962963
5	585	16000	0.84397222222222
5	620	17000	0.83444444444444
5	620	17000	0.83444444444444
5	620	17000	0.83423148148148
5	653	18000	0.82509259259259
5	653	18000	0.82509259259259
5	653	18000	0.82449074074074
5	688	19000	0.81515740740741
5	688	19000	0.81515740740741
5	688	19000	0.81475
5	723	20000	0.80522222222222
5	723	20000	0.80500925925926
5	724	20000	0.80500925925926
5	724	20000	0.80500925925926
5	724	20000	0.80499074074074
5	729	20000	0.80493518518519
5	729	20000	0.80491666666667
5	763	21000	0.79576851851852
5	763	21000	0.79576851851852
5	763	21000	0.79516666666667
5	798	22000	0.78583333333333
5	798	22000	0.78583333333333
5	798	22000	0.78542592592593
5	833	23000	0.77589814814815
5	833	23000	0.77589814814815
5	833	23000	0.77568518518519
5	866	24000	0.7665462962963
5	866	24000	0.7665462962963
5	866	24000	0.76594444444444
5	901	25000	0.75661111111111
5	901	25000	0.75661111111111
5	901	25000	0.7562037037037
5	936	26000	0.74667592592593
5	936	26000	0.74667592592593
5	936	26000	0.74646296296296
5	969	27000	0.73732407407407
5	969	27000	0.73732407407407
5	969	27000	0.73672222222222
5	1004	28000	0.72738888888889
5	1004	28000	0.72738888888889
5	1004	28000	0.72698148148148
5	1039	29000	0.7174537037037
5	1039	29000	0.7174537037037
5	1039	29000	0.71724074074074
5	1072	30000	0.70810185185185
5	1072	30000	0.7075
5	1073	30000	0.7075
5	1073	30000	0.7075
5	1073	30000	0.70748148148148
5	1078	30000	0.70742592592593
5	1078	30000	0.70740740740741
5	1114	31000	0.69806481481481
5	1114	31000	0.69806481481481
5	1114	31000	0.69765740740741
5	1149	32000	0.68812962962963
5	1149	32000	0.68812962962963
5	1149	32000	0.68791666666667
5	1182	33000	0.67877777777778
5	1182	33000	0.67877777777778
5	1182	33000	0.67817592592593
5	1217	34000	0.66884259259259
5	1217	34000	0.66884259259259
5	1217	34000	0.66843518518519
5	1252	35000	0.65890740740741
5	1252	35000	0.65890740740741
5	1252	35000	0.65869444444444
5	1285	36000	0.64955555555556
5	1285	36000	0.64955555555556
5	1285	36000	0.6489537037037
5	1320	37000	0.63962037037037
5	1320	37000	0.63962037037037
5	1320	37000	0.63921296296296
5	1355	38000	0.62968518518519
5	1355	38000	0.62968518518519
5	1355	38000	0.62947222222222
5	1388	39000	0.62033333333333
5	1388	39000	0.62033333333333
5	1388	39000	0.61973148148148
5	1423	40000	0.61039814814815
5	1423	40000	0.60999074074074
5	1424	40000	0.60999074074074
5	1424	40000	0.60999074074074
5	1424	40000	0.60997222222222
5	1429	40000	0.60991666666667
5	1429	40000	0.60989814814815
5	1465	41000	0.60036111111111
5	1465	41000	0.60036111111111
5	1465	41000	0.60014814814815
5	1498	42000	0.59100925925926
5	1498	42000	0.59100925925926
5	1498	42000	0.59040740740741
5	1533	43000	0.58107407407407
5	1533	43000	0.58107407407407
5	1533	43000	0.58066666666667
5	1568	44000	0.57113888888889
5	1568	44000	0.57113888888889
5	1568	44000	0.57092592592593
5	1601	45000	0.56178703703704
5	1601	45000	0.56178703703704
5	1601	45000	0.56118518518519
5	1636	46000	0.55185185185185
5	1636	46000	0.55185185185185
5	1636	46000	0.55144444444444
5	1671	47000	0.54191666666667
5	1671	47000	0.54191666666667
5	1671	47000	0.5417037037037
5	1704	48000	0.53256481481481
5	1704	48000	0.53256481481481
5	1704	48000	0.53196296296296
5	1739	49000	0.52262962962963
5	1739	49000	0.52262962962963
5	1739	49000	0.52222222222222
5	1774	50000	0.51269444444444
5	1774	50000	0.51248148148148
5	1775	50000	0.51248148148148
5	1775	50000	0.51248148148148
5	1775	50000	0.51246296296296
5	1780	50000	0.51240740740741
5	1780	50000	0.51238888888889
5	1814	51000	0.50324074074074
5	1814	51000	0.50324074074074
5	1814	51000	0.50263888888889
5	1849	52000	0.49330555555556
5	1849	52000	0.49330555555556
5	1849	52000	0.49289814814815
5	1884	53000	0.48337037037037
5	1884	53000	0.48337037037037
5	1884	53000	0.48315740740741
5	1917	54000	0.47401851851852
5	1917	54000	0.47401851851852
5	1917	54000	0.47341666666667
5	1952	55000	0.46408333333333
5	1952	55000	0.46408333333333
5	1952	55000	0.46367592592593
5	1987	56000	0.45414814814815
5	1987	56000	0.45414814814815
5	1987	56000	0.45393518518519
5	2020	57000	0.4447962962963
5	2020	57000	0.4447962962963
5	2020	57000	0.44419444444444
5	2055	58000	0.43486111111111
5	2055	58000	0.43486111111111
5	2055	58000	0.4344537037037
5	2090	59000	0.42492592592593
5	2090	59000	0.42492592592593
5	2090	59000	0.42471296296296
5	2123	60000	0.41557407407407
5	2123	60000	0.41497222222222
5	2124	60000	0.41497222222222
5	2124	60000	0.41497222222222
5	2124	60000	0.4149537037037
5	2129	60000	0.41489814814815
5	2129	60000	0.41487962962963
5	2165	61000	0.40553703703704
5	2165	61000	0.40553703703704
5	2165	61000	0.40512962962963
5	2200	62000	0.39560185185185
5	2200	62000	0.39560185185185
5	2200	62000	0.39538888888889
5	2233	63000	0.38625
5	2233	63000	0.38625
5	2233	63000	0.38564814814815
5	2268	64000	0.37631481481481
5	2268	64000	0.37631481481481
5	2268	64000	0.37590740740741
5	2303	65000	0.36637962962963
5	2303	65000	0.36637962962963
5	2303	65000	0.36616666666667
5	2336	66000	0.35702777777778
5	2336	66000	0.35702777777778
5	2336	66000	0.35642592592593
5	2371	67000	0.34709259259259
5	2371	67000	0.34709259259259
5	2371	67000	0.34668518518519
5	2406	68000	0.33715740740741
5	2406	68000	0.33715740740741
5	2406	68000	0.33694444444444
5	2439	69000	0.32780555555556
5	2439	69000	0.32780555555556
5	2439	69000	0.3272037037037
5	2474	70000	0.31787037037037
5	2474	70000	0.31746296296296
5	2475	70000	0.31746296296296
5	2475	70000	0.31746296296296
5	2475	70000	0.31744444444444
5	2480	70000	0.31738888888889
5	2480	70000	0.31737037037037
5	2516	71000	0.30783333333333
5	2516	71000	0.30783333333333
5	2516	71000	0.30762037037037
5	2549	72000	0.29848148148148
5	2549	72000	0.29848148148148
5	2549	72000	0.29787962962963
5	2584	73000	0.2885462962963
5	2584	73000	0.2885462962963
5	2584	73000	0.28813888888889
5	2619	74000	0.27861111111111
5	2619	74000	0.27861111111111
5	2619	74000	0.27839814814815
5	2652	75000	0.26925925925926
5	2652	75000	0.26925925925926
5	2652	75000	0.26865740740741
5	2687	76000	0.25932407407407
5	2687	76000	0.25932407407407
5	2687	76000	0.25891666666667
5	2722	77000	0.24938888888889
5	2722	77000	0.24938888888889
5	2722	77000	0.24917592592593
5	2755	78000	0.24003703703704
5	2755	78000	0.24003703703704
5	2755	78000	0.23943518518519
5	2790	79000	0.23010185185185
5	2790	79000	0.23010185185185
5	2790	79000	0.22969444444444
5	2825	80000	0.22016666666667
5	2825	80000	0.2199537037037
5	2826	80000	0.2199537037037
5	2826	80000	0.2199537037037
5	2826	80000	0.21993518518519
5	2831	80000	0.21987962962963
5	2831	80000	0.21986111111111
5	2865	81000	0.21071296296296
5	2865	81000	0.21071296296296
5	2865	81000	0.21011111111111
5	2900	82000	0.20077777777778
5	2900	82000	0.20077777777778
5	2900	82000	0.20037037037037
5	2935	83000	0.19084259259259
5	2935	83000	0.19084259259259
5	2935	83000	0.19062962962963
5	2968	84000	0.18149074074074
5	2968	84000	0.18149074074074
5	2968	84000	0.18088888888889
5	3003	85000	0.17155555555556
5	3003	85000	0.17155555555556
5	3003	85000	0.17114814814815
5	3038	86000	0.16162037037037
5	3038	86000	0.16162037037037
5	3038	86000	0.16140740740741
5	3071	87000	0.15226851851852
5	3071	87000	0.15226851851852
5	3071	87000	0.15166666666667
5	3106	88000	0.14233333333333
5	3106	88000	0.14233333333333
5	3106	88000	0.14192592592593
5	3141	89000	0.13239814814815
5	3141	89000	0.13239814814815
5	3141	89000	0.13218518518519
5	3174	90000	0.1230462962963
5	3174	90000	0.12244444444444
5	3175	90000	0.12244444444444
5	3175	90000	0.12244444444444
5	3175	90000	0.12242592592593
5	3180	90000	0.12237037037037
5	3180	90000	0.12235185185185
5	3216	91000	0.11300925925926
5	3216	91000	0.11300925925926
5	3216	91000	0.11260185185185
5	3251	92000	0.10307407407407
5	3251	92000	0.10307407407407
5	3251	92000	0.10286111111111
5	3284	93000	0.093722222222222
5	3284	93000	0.093722222222222
5	3284	93000	0.09312037037037
5	3319	94000	0.083787037037037
5	3319	94000	0.083787037037037
5	3319	94000	0.08337962962963
5	3354	95000	0.073851851851852
5	3354	95000	0.073851851851852
5	3354	95000	0.073638888888889
5	3387	96000	0.0645
5	3387	96000	0.0645
5	3387	96000	0.063898148148148
5	3422	97000	0.054564814814815
5	3422	97000	0.054564814814815
5	3422	97000	0.054157407407407
5	3457	98000	0.04462962962963
5	3457	98000	0.04462962962963
5	3457	98000	0.044416666666667
5	3490	99000	0.035277777777778
5	3490	99000	0.035277777777778
5	3490	99000	0.034675925925926
5	3525	100000	0.025342592592593
5	3525	100000	0.024935185185185
5	3526	100000	0.024935185185185
5	3526	100000	0.024935185185185
5	3526	100000	0.024916666666667
5	3531	100000	0.024861111111111
5	3531	100000	0.024842592592593
5	3567	101000	0.015305555555556
5	3567	101000	0.015305555555556
5	3567	101000	0.015092592592593
5	3600	102000	0.0059537037037037
5	3600	102000	0.0059537037037037
5	3600	102000	0.0053518518518519
6	0	0	10800000
6	4	0	10799500
6	4	0	10799300
6	63	1000	10698400
6	63	1000	10698400
6	63	1000	10694000
6	98	2000	10591100
6	98	2000	10591100
6	98	2000	10588800
6	131	3000	10490100
6	131	3000	10490100
6	131	3000	10483600
6	166	4000	10382800
6	166	4000	10382800
6	166	4000	10378400
6	201	5000	10275500
6	201	5000	10275500
6	201	5000	10273200
6	234	6000	10174500
6	234	6000	10174500
6	234	6000	10168000
6	269	7000	10067200
6	269	7000	10067200
6	269	7000	10062800
6	304	8000	9959900
6	304	8000	9959900
6	304	8000	9957600
6	337	9000	9858900
6	337	9000	9858900
6	337	9000	9852400
6	372	10000	9751600
6	372	10000	9747200
6	373	10000	9747200
6	373	10000	9747200
6	373	10000	9747000
6	378	10000	9746400
6	378	10000	9746200
6	414	11000	9643200
6	414	11000	9643200
6	414	11000	9640900
6	447	12000	9542200
6	447	12000	9542200
6	447	12000	9535700
6	482	13000	9434900
6	482	13000	9434900
6	482	13000	9430500
6	517	14000	9327600
6	517	14000	9327600
6	517	14000	9325300
6	550	15000	9226600
6	550	15000	9226600
6	550	15000	9220100
6	585	16000	9119300
6	585	16000	9119300
6	585	16000	9114900
6	620	17000	9012000
6	620	17000	9012000
6	620	17000	9009700
6	653	18000	8911000
6	653	18000	8911000
6	653	18000	8904500
6	688	19000	8803700
6	688	19000	8803700
6	688	19000	8799300
6	723	20000	8696400
6	723	20000	8694100
6	724	20000	8694100
6	724	20000	8694100
6	724	20000	8693900
6	729	20000	8693300
6	729	20000	8693100
6	763	21000	8594300
6	763	21000	8594300
6	763	21000	8587800
6	798	22000	8487000
6	798	22000	8487000
6	798	22000	8482600
6	833	23000	8379700
6	833	23000	8379700
6	833	23000	8377400
6	866	24000	8278700
6	866	24000	8278700
6	866	24000	8272200
6	901	25000	8171400
6	901	25000	8171400
6	901	25000	8167000
6	936	26000	8064100
6	936	26000	8064100
6	936	26000	8061800
6	969	27000	7963100
6	969	27000	7963100
6	969	27000	7956600
6	1004	28000	7855800
6	1004	28000	7855800
6	1004	28000	7851400
6	1039	29000	7748500
6	1039	29000	7748500
6	1039	29000	7746200
6	1072	30000	7647500
6	1072	30000	7641000
6	1073	30000	7641000
6	1073	30000	7641000
6	1073	30000	7640800
6	1078	30000	7640200
6	1078	30000	7640000
6	1114	31000	7539100
6	1114	31000	7539100
6	1114	31000	7534700
6	1149	32000	7431800
6	1149	32000	7431800
6	1149	32000	7429500
6	1182	33000	7330800
6	1182	33000	7330800
6	1182	33000	7324300
6	1217	34000	7223500
6	1217	34000	7223500
6	1217	34000	7219100
6	1252	35000	7116200
6	1252	35000	7116200
6	1252	35000	7113900
6	1285	36000	7015200
6	1285	36000	7015200
6	1285	36000	7008700
6	1320	37000	6907900
6	1320	37000	6907900
6	1320	37000	6903500
6	1355	38000	6800600
6	1355	38000	6800600
6	1355	38000	6798300
6	1388	39000	6699600
6	1388	39000	6699600
6	1388	39000	6693100
6	1423	40000	6592300
6	1423	40000	6587900
6	1424	40000	6587900
6	1424	40000	6587900
6	1424	40000	6587700
6	1429	40000	6587100
6	1429	40000	6586900
6	1465	41000	6483900
6	1465	41000	6483900
6	1465	41000	6481600
6	1498	42000	6382900
6	1498	42000	6382900
6	1498	42000	6376400
6	1533	43000	6275600
6	1533	43000	6275600
6	1533	43000	6271200
6	1568	44000	6168300
6	1568	44000	6168300
6	1568	44000	6166000
6	1601	45000	6067300
6	1601	45000	6067300
6	1601	45000	6060800
6	1636	46000	5960000
6	1636	46000	5960000
6	1636	46000	5955600
6	1671	47000	5852700
6	1671	47000	5852700
6	1671	47000	5850400
6	1704	48000	5751700
6	1704	48000	5751700
6	1704	48000	5745200
6	1739	49000	5644400
6	1739	49000	5644400
6	1739	49000	5640000
6	1774	50000	5537100
6	1774	50000	5534800
6	1775	50000	5534800
6	1775	50000	5534800
6	1775	50000	5534600
6	1780	50000	5534000
6	1780	50000	5533800
6	1814	51000	5435000
6	1814	51000	5435000
6	1814	51000	5428500
6	1849	52000	5327700
6	1849	52000	5327700
6	1849	52000	5323300
6	1884	53000	5220400
6	1884	53000	5220400
6	1884	53000	5218100
6	1917	54000	5119400
6	1917	54000	5119400
6	1917	54000	5112900
6	1952	55000	5012100
6	1952	55000	5012100
6	1952	55000	5007700
6	1987	56000	4904800
6	1987	56000	4904800
6	1987	56000	4902500
6	2020	57000	4803800
6	2020	57000	4803800
6	2020	57000	4797300
6	2055	58000	4696500
6	2055	58000	4696500
6	2055	58000	4692100
6	2090	59000	4589200
6	2090	59000	4589200
6	2090	59000	4586900
6	2123	60000	4488200
6	2123	60000	4481700
6	2124	60000	4481700
6	2124	60000	4481700
6	2124	60000	4481500
6	2129	60000	4480900
6	2129	60000	4480700
6	2165	61000	4379800
6	2165	61000	4379800
6	2165	61000	4375400
6	2200	62000	4272500
6	2200	62000	4272500
6	2200	62000	4270200
6	2233	63000	4171500
6	2233	63000	4171500
6	2233	63000	4165000
6	2268	64000	4064200
6	2268	64000	4064200
6	2268	64000	4059800
6	2303	65000	3956900
6	2303	65000	3956900
6	2303	65000	3954600
6	2336	66000	3855900
6	2336	66000	3855900
6	2336	66000	3849400
6	2371	67000	3748600
6	2371	67000	3748600
6	2371	67000	3744200
6	2406	68000	3641300
6	2406	68000	3641300
6	2406	68000	3639000
6	2439	69000	3540300
6	2439	69000	3540300
6	2439	69000	3533800
6	2474	70000	3433000
6	2474	70000	3428600
6	2475	70000	3428600
6	2475	70000	3428600
6	2475	70000	3428400
6	2480	70000	3427800
6	2480	70000	3427600
6	2516	71000	3324600
6	2516	71000	3324600
6	2516	71000	3322300
6	2549	72000	3223600
6	2549	72000	3223600
6	2549	72000	3217100
6	2584	73000	3116300
6	2584	73000	3116300
6	2584	73000	3111900
6	2619	74000	3009000
6	2619	74000	3009000
6	2619	74000	3006700
6	2652	75000	2908000
6	2652	75000	2908000
6	2652	75000	2901500
6	2687	76000	2800700
6	2687	76000	2800700
6	2687	76000	2796300
6	2722	77000	2693400
6	2722	77000	2693400
6	2722	77000	2691100
6	2755	78000	2592400
6	2755	78000	2592400
6	2755	78000	2585900
6	2790	79000	2485100
6	2790	79000	2485100
6	2790	79000	2480700
6	2825	80000	2377800
6	2825	80000	2375500
6	2826	80000	2375500
6	2826	80000	2375500
6	2826	80000	2375300
6	2831	80000	2374700
6	2831	80000	2374500
6	2865	81000	2275700
6	2865	81000	2275700
6	2865	81000	2269200
6	2900	82000	2168400
6	2900	82000	2168400
6	2900	82000	2164000
6	2935	83000	2061100
6	2935	83000	2061100
6	2935	83000	2058800
6	2968	84000	1960100
6	2968	84000	1960100
6	2968	84000	1953600
6	3003	85000	1852800
6	3003	85000	1852800
6	3003	85000	1848400
6	3038	86000	1745500
6	3038	86000	1745500
6	3038	86000	1743200
6	3071	87000	1644500
6	3071	87000	1644500
6	3071	87000	1638000
6	3106	88000	1537200
6	3106	88000	1537200
6	3106	88000	1532800
6	3141	89000	1429900
6	3141	89000	1429900
6	3141	89000	1427600
6	3174	90000	1328900
6	3174	90000	1322400
6	3175	90000	1322400
6	3175	90000	1322400
6	3175	90000	1322200
6	3180	90000	1321600
6	3180	90000	1321400
6	3216	91000	1220500
6	3216	91000	1220500
6	3216	91000	1216100
6	3251	92000	1113200
6	3251	92000	1113200
6	3251	92000	1110900
6	3284	93000	1012200
6	3284	93000	1012200
6	3284	93000	1005700
6	3319	94000	904900
6	3319	94000	904900
6	3319	94000	900500
6	3354	95000	797600
6	3354	95000	797600
6	3354	95000	795300
6	3387	96000	696600
6	3387	96000	696600
6	3387	96000	690100
6	3422	97000	589300
6	3422	97000	589300
6	3422	97000	584900
6	3457	98000	482000
6	3457	98000	482000
6	3457	98000	479700
6	3490	99000	381000
6	3490	99000	381000
6	3490	99000	374500
6	3525	100000	273700
6	3525	100000	269300
6	3526	100000	269300
6	3526	100000	269300
6	3526	100000	269100
6	3531	100000	268500
6	3531	100000	268300
6	3567	101000	165300
6	3567	101000	165300
6	3567	101000	163000
6	3600	102000	64300
6	3600	102000	64300
6	3600	102000	57800
