file 83535 1449503266                                           
version 2
run General-0-20151109-12:57:37-11109
attr configname General
attr datetime 20151109-12:57:37
attr experiment General
attr inifile omnetpp.ini
attr iterationvars ""
attr iterationvars2 $repetition=0
attr measurement ""
attr network ApplicationClusteringImplementations
attr processid 11109
attr repetition 0
attr replication #0
attr resultdir results
attr runnumber 0
attr seedset 0
vector 7  ApplicationClusteringImplementations.TemperatureSensorNode.Processor  "power mode"  ETV
7	69064 16 0 0 0 0 2 0 0 0 0
vector 8  ApplicationClusteringImplementations.TemperatureSensorNode.Processor  "Sensor Modules Status"  ETV
8	69080 18 0 116 0 0 2 0 0 0 0
vector 9  ApplicationClusteringImplementations.TemperatureSensorNode.Processor  Voltage  ETV
9	69098 28 0 116 0 0 3 3 3 9 27
vector 10  ApplicationClusteringImplementations.TemperatureSensorNode.Processor  residualRelative  ETV
10	69126 60 0 116 0 0 3 0.99993518518519 1 2.9998888888889 2.9997777841221
vector 11  ApplicationClusteringImplementations.TemperatureSensorNode.Processor  residualAbs  ETV
11	69186 52 0 116 0 0 3 10799300 10800000 32398800 3.4989408074e+14
vector 19  ApplicationClusteringImplementations.TemperatureSensorNode1.Processor  "power mode"  ETV
19	69238 18 0 0 0 0 2 0 0 0 0
vector 20  ApplicationClusteringImplementations.TemperatureSensorNode1.Processor  "Sensor Modules Status"  ETV
20	69256 20 0 117 0 0 2 0 0 0 0
vector 21  ApplicationClusteringImplementations.TemperatureSensorNode1.Processor  Voltage  ETV
21	69276 31 0 117 0 0 3 3 3 9 27
vector 22  ApplicationClusteringImplementations.TemperatureSensorNode1.Processor  residualRelative  ETV
22	69307 60 0 117 0 0 3 0.99993518518519 1 2.9998888888889 2.9997777841221
vector 23  ApplicationClusteringImplementations.TemperatureSensorNode1.Processor  residualAbs  ETV
23	69367 52 0 117 0 0 3 10799300 10800000 32398800 3.4989408074e+14
vector 31  ApplicationClusteringImplementations.TemperatureSensorNode2.Processor  "power mode"  ETV
31	69419 18 0 0 0 0 2 0 0 0 0
vector 32  ApplicationClusteringImplementations.TemperatureSensorNode2.Processor  "Sensor Modules Status"  ETV
32	69437 20 0 118 0 0 2 0 0 0 0
vector 33  ApplicationClusteringImplementations.TemperatureSensorNode2.Processor  Voltage  ETV
33	69457 31 0 118 0 0 3 3 3 9 27
vector 34  ApplicationClusteringImplementations.TemperatureSensorNode2.Processor  residualRelative  ETV
34	69488 60 0 118 0 0 3 0.99993518518519 1 2.9998888888889 2.9997777841221
vector 35  ApplicationClusteringImplementations.TemperatureSensorNode2.Processor  residualAbs  ETV
35	69548 52 0 118 0 0 3 10799300 10800000 32398800 3.4989408074e+14
vector 43  ApplicationClusteringImplementations.TemperatureSensorNode3.Processor  "power mode"  ETV
43	69600 18 0 0 0 0 2 0 0 0 0
vector 44  ApplicationClusteringImplementations.TemperatureSensorNode3.Processor  "Sensor Modules Status"  ETV
44	69618 20 0 119 0 0 2 0 0 0 0
vector 45  ApplicationClusteringImplementations.TemperatureSensorNode3.Processor  Voltage  ETV
45	69638 31 0 119 0 0 3 3 3 9 27
vector 46  ApplicationClusteringImplementations.TemperatureSensorNode3.Processor  residualRelative  ETV
46	69669 60 0 119 0 0 3 0.99993518518519 1 2.9998888888889 2.9997777841221
vector 47  ApplicationClusteringImplementations.TemperatureSensorNode3.Processor  residualAbs  ETV
47	69729 52 0 119 0 0 3 10799300 10800000 32398800 3.4989408074e+14
vector 55  ApplicationClusteringImplementations.TemperatureSensorNode4.Processor  "power mode"  ETV
55	69781 18 0 0 0 0 2 0 0 0 0
vector 56  ApplicationClusteringImplementations.TemperatureSensorNode4.Processor  "Sensor Modules Status"  ETV
56	69799 20 0 120 0 0 2 0 0 0 0
vector 57  ApplicationClusteringImplementations.TemperatureSensorNode4.Processor  Voltage  ETV
57	69819 31 0 120 0 0 3 3 3 9 27
vector 58  ApplicationClusteringImplementations.TemperatureSensorNode4.Processor  residualRelative  ETV
58	69850 60 0 120 0 0 3 0.99993518518519 1 2.9998888888889 2.9997777841221
vector 59  ApplicationClusteringImplementations.TemperatureSensorNode4.Processor  residualAbs  ETV
59	69910 52 0 120 0 0 3 10799300 10800000 32398800 3.4989408074e+14
vector 67  ApplicationClusteringImplementations.TemperatureSensorNode5.Processor  "power mode"  ETV
67	69962 18 0 0 0 0 2 0 0 0 0
vector 68  ApplicationClusteringImplementations.TemperatureSensorNode5.Processor  "Sensor Modules Status"  ETV
68	69980 20 0 121 0 0 2 0 0 0 0
vector 69  ApplicationClusteringImplementations.TemperatureSensorNode5.Processor  Voltage  ETV
69	70000 31 0 121 0 0 3 3 3 9 27
vector 70  ApplicationClusteringImplementations.TemperatureSensorNode5.Processor  residualRelative  ETV
70	70031 60 0 121 0 0 3 0.99993518518519 1 2.9998888888889 2.9997777841221
vector 71  ApplicationClusteringImplementations.TemperatureSensorNode5.Processor  residualAbs  ETV
71	70091 52 0 121 0 0 3 10799300 10800000 32398800 3.4989408074e+14
vector 79  ApplicationClusteringImplementations.TemperatureSensorNode6.Processor  "power mode"  ETV
79	70143 18 0 0 0 0 2 0 0 0 0
vector 80  ApplicationClusteringImplementations.TemperatureSensorNode6.Processor  "Sensor Modules Status"  ETV
80	70161 20 0 122 0 0 2 0 0 0 0
vector 81  ApplicationClusteringImplementations.TemperatureSensorNode6.Processor  Voltage  ETV
81	70181 31 0 122 0 0 3 3 3 9 27
vector 82  ApplicationClusteringImplementations.TemperatureSensorNode6.Processor  residualRelative  ETV
82	70212 60 0 122 0 0 3 0.99993518518519 1 2.9998888888889 2.9997777841221
vector 83  ApplicationClusteringImplementations.TemperatureSensorNode6.Processor  residualAbs  ETV
83	70272 52 0 122 0 0 3 10799300 10800000 32398800 3.4989408074e+14
vector 91  ApplicationClusteringImplementations.TemperatureSensorNode7.Processor  "power mode"  ETV
91	70324 18 0 0 0 0 2 0 0 0 0
vector 92  ApplicationClusteringImplementations.TemperatureSensorNode7.Processor  "Sensor Modules Status"  ETV
92	70342 20 0 123 0 0 2 0 0 0 0
vector 93  ApplicationClusteringImplementations.TemperatureSensorNode7.Processor  Voltage  ETV
93	70362 31 0 123 0 0 3 3 3 9 27
vector 94  ApplicationClusteringImplementations.TemperatureSensorNode7.Processor  residualRelative  ETV
94	70393 60 0 123 0 0 3 0.99993518518519 1 2.9998888888889 2.9997777841221
vector 95  ApplicationClusteringImplementations.TemperatureSensorNode7.Processor  residualAbs  ETV
95	70453 52 0 123 0 0 3 10799300 10800000 32398800 3.4989408074e+14
vector 103  ApplicationClusteringImplementations.TemperatureSensorNode8.Processor  "power mode"  ETV
103	70505 20 0 0 0 0 2 0 0 0 0
vector 104  ApplicationClusteringImplementations.TemperatureSensorNode8.Processor  "Sensor Modules Status"  ETV
104	70525 22 0 124 0 0 2 0 0 0 0
vector 105  ApplicationClusteringImplementations.TemperatureSensorNode8.Processor  Voltage  ETV
105	70547 34 0 124 0 0 3 3 3 9 27
vector 106  ApplicationClusteringImplementations.TemperatureSensorNode8.Processor  residualRelative  ETV
106	70581 63 0 124 0 0 3 0.99993518518519 1 2.9998888888889 2.9997777841221
vector 107  ApplicationClusteringImplementations.TemperatureSensorNode8.Processor  residualAbs  ETV
107	70644 55 0 124 0 0 3 10799300 10800000 32398800 3.4989408074e+14
vector 115  ApplicationClusteringImplementations.TemperatureSensorNode9.Processor  "power mode"  ETV
115	70699 20 0 0 0 0 2 0 0 0 0
vector 116  ApplicationClusteringImplementations.TemperatureSensorNode9.Processor  "Sensor Modules Status"  ETV
116	70719 22 0 125 0 0 2 0 0 0 0
vector 117  ApplicationClusteringImplementations.TemperatureSensorNode9.Processor  Voltage  ETV
117	70741 34 0 125 0 0 3 3 3 9 27
vector 118  ApplicationClusteringImplementations.TemperatureSensorNode9.Processor  residualRelative  ETV
118	70775 63 0 125 0 0 3 0.99993518518519 1 2.9998888888889 2.9997777841221
vector 119  ApplicationClusteringImplementations.TemperatureSensorNode9.Processor  residualAbs  ETV
119	70838 55 0 125 0 0 3 10799300 10800000 32398800 3.4989408074e+14
vector 127  ApplicationClusteringImplementations.TemperatureSensorNode10.Processor  "power mode"  ETV
127	70893 20 0 0 0 0 2 0 0 0 0
vector 128  ApplicationClusteringImplementations.TemperatureSensorNode10.Processor  "Sensor Modules Status"  ETV
128	70913 22 0 126 0 0 2 0 0 0 0
vector 129  ApplicationClusteringImplementations.TemperatureSensorNode10.Processor  Voltage  ETV
129	70935 34 0 126 0 0 3 3 3 9 27
vector 130  ApplicationClusteringImplementations.TemperatureSensorNode10.Processor  residualRelative  ETV
130	70969 63 0 126 0 0 3 0.99993518518519 1 2.9998888888889 2.9997777841221
vector 131  ApplicationClusteringImplementations.TemperatureSensorNode10.Processor  residualAbs  ETV
131	71032 55 0 126 0 0 3 10799300 10800000 32398800 3.4989408074e+14
vector 139  ApplicationClusteringImplementations.TemperatureSensorNode11.Processor  "power mode"  ETV
139	71087 20 0 0 0 0 2 0 0 0 0
vector 140  ApplicationClusteringImplementations.TemperatureSensorNode11.Processor  "Sensor Modules Status"  ETV
140	71107 22 0 127 0 0 2 0 0 0 0
vector 141  ApplicationClusteringImplementations.TemperatureSensorNode11.Processor  Voltage  ETV
141	71129 34 0 127 0 0 3 3 3 9 27
vector 142  ApplicationClusteringImplementations.TemperatureSensorNode11.Processor  residualRelative  ETV
142	71163 63 0 127 0 0 3 0.99993518518519 1 2.9998888888889 2.9997777841221
vector 143  ApplicationClusteringImplementations.TemperatureSensorNode11.Processor  residualAbs  ETV
143	71226 55 0 127 0 0 3 10799300 10800000 32398800 3.4989408074e+14
vector 151  ApplicationClusteringImplementations.TemperatureSensorNode12.Processor  "power mode"  ETV
151	71281 20 0 0 0 0 2 0 0 0 0
vector 152  ApplicationClusteringImplementations.TemperatureSensorNode12.Processor  "Sensor Modules Status"  ETV
152	71301 22 0 128 0 0 2 0 0 0 0
vector 153  ApplicationClusteringImplementations.TemperatureSensorNode12.Processor  Voltage  ETV
153	71323 34 0 128 0 0 3 3 3 9 27
vector 154  ApplicationClusteringImplementations.TemperatureSensorNode12.Processor  residualRelative  ETV
154	71357 63 0 128 0 0 3 0.99993518518519 1 2.9998888888889 2.9997777841221
vector 155  ApplicationClusteringImplementations.TemperatureSensorNode12.Processor  residualAbs  ETV
155	71420 55 0 128 0 0 3 10799300 10800000 32398800 3.4989408074e+14
vector 163  ApplicationClusteringImplementations.TemperatureSensorNode13.Processor  "power mode"  ETV
163	71475 20 0 0 0 0 2 0 0 0 0
vector 164  ApplicationClusteringImplementations.TemperatureSensorNode13.Processor  "Sensor Modules Status"  ETV
164	71495 22 0 129 0 0 2 0 0 0 0
vector 165  ApplicationClusteringImplementations.TemperatureSensorNode13.Processor  Voltage  ETV
165	71517 34 0 129 0 0 3 3 3 9 27
vector 166  ApplicationClusteringImplementations.TemperatureSensorNode13.Processor  residualRelative  ETV
166	71551 63 0 129 0 0 3 0.99993518518519 1 2.9998888888889 2.9997777841221
vector 167  ApplicationClusteringImplementations.TemperatureSensorNode13.Processor  residualAbs  ETV
167	71614 55 0 129 0 0 3 10799300 10800000 32398800 3.4989408074e+14
vector 175  ApplicationClusteringImplementations.TemperatureSensorNode14.Processor  "power mode"  ETV
175	71669 20 0 0 0 0 2 0 0 0 0
vector 176  ApplicationClusteringImplementations.TemperatureSensorNode14.Processor  "Sensor Modules Status"  ETV
176	71689 22 0 130 0 0 2 0 0 0 0
vector 177  ApplicationClusteringImplementations.TemperatureSensorNode14.Processor  Voltage  ETV
177	71711 34 0 130 0 0 3 3 3 9 27
vector 178  ApplicationClusteringImplementations.TemperatureSensorNode14.Processor  residualRelative  ETV
178	71745 63 0 130 0 0 3 0.99993518518519 1 2.9998888888889 2.9997777841221
vector 179  ApplicationClusteringImplementations.TemperatureSensorNode14.Processor  residualAbs  ETV
179	71808 55 0 130 0 0 3 10799300 10800000 32398800 3.4989408074e+14
vector 187  ApplicationClusteringImplementations.TemperatureSensorNode15.Processor  "power mode"  ETV
187	71863 20 0 0 0 0 2 0 0 0 0
vector 188  ApplicationClusteringImplementations.TemperatureSensorNode15.Processor  "Sensor Modules Status"  ETV
188	71883 22 0 131 0 0 2 0 0 0 0
vector 189  ApplicationClusteringImplementations.TemperatureSensorNode15.Processor  Voltage  ETV
189	71905 34 0 131 0 0 3 3 3 9 27
vector 190  ApplicationClusteringImplementations.TemperatureSensorNode15.Processor  residualRelative  ETV
190	71939 63 0 131 0 0 3 0.99993518518519 1 2.9998888888889 2.9997777841221
vector 191  ApplicationClusteringImplementations.TemperatureSensorNode15.Processor  residualAbs  ETV
191	72002 55 0 131 0 0 3 10799300 10800000 32398800 3.4989408074e+14
vector 199  ApplicationClusteringImplementations.TemperatureSensorNode16.Processor  "power mode"  ETV
199	72057 20 0 0 0 0 2 0 0 0 0
vector 200  ApplicationClusteringImplementations.TemperatureSensorNode16.Processor  "Sensor Modules Status"  ETV
200	72077 22 0 132 0 0 2 0 0 0 0
vector 201  ApplicationClusteringImplementations.TemperatureSensorNode16.Processor  Voltage  ETV
201	72099 34 0 132 0 0 3 3 3 9 27
vector 202  ApplicationClusteringImplementations.TemperatureSensorNode16.Processor  residualRelative  ETV
202	72133 63 0 132 0 0 3 0.99993518518519 1 2.9998888888889 2.9997777841221
vector 203  ApplicationClusteringImplementations.TemperatureSensorNode16.Processor  residualAbs  ETV
203	72196 55 0 132 0 0 3 10799300 10800000 32398800 3.4989408074e+14
vector 211  ApplicationClusteringImplementations.TemperatureSensorNode17.Processor  "power mode"  ETV
211	72251 20 0 0 0 0 2 0 0 0 0
vector 212  ApplicationClusteringImplementations.TemperatureSensorNode17.Processor  "Sensor Modules Status"  ETV
212	72271 22 0 133 0 0 2 0 0 0 0
vector 213  ApplicationClusteringImplementations.TemperatureSensorNode17.Processor  Voltage  ETV
213	72293 34 0 133 0 0 3 3 3 9 27
vector 214  ApplicationClusteringImplementations.TemperatureSensorNode17.Processor  residualRelative  ETV
214	72327 63 0 133 0 0 3 0.99993518518519 1 2.9998888888889 2.9997777841221
vector 215  ApplicationClusteringImplementations.TemperatureSensorNode17.Processor  residualAbs  ETV
215	72390 55 0 133 0 0 3 10799300 10800000 32398800 3.4989408074e+14
vector 223  ApplicationClusteringImplementations.TemperatureSensorNode18.Processor  "power mode"  ETV
223	72445 20 0 0 0 0 2 0 0 0 0
vector 224  ApplicationClusteringImplementations.TemperatureSensorNode18.Processor  "Sensor Modules Status"  ETV
224	72465 22 0 134 0 0 2 0 0 0 0
vector 225  ApplicationClusteringImplementations.TemperatureSensorNode18.Processor  Voltage  ETV
225	72487 34 0 134 0 0 3 3 3 9 27
vector 226  ApplicationClusteringImplementations.TemperatureSensorNode18.Processor  residualRelative  ETV
226	72521 63 0 134 0 0 3 0.99993518518519 1 2.9998888888889 2.9997777841221
vector 227  ApplicationClusteringImplementations.TemperatureSensorNode18.Processor  residualAbs  ETV
227	72584 55 0 134 0 0 3 10799300 10800000 32398800 3.4989408074e+14
vector 235  ApplicationClusteringImplementations.TemperatureSensorNode19.Processor  "power mode"  ETV
235	72639 20 0 0 0 0 2 0 0 0 0
vector 236  ApplicationClusteringImplementations.TemperatureSensorNode19.Processor  "Sensor Modules Status"  ETV
236	72659 22 0 135 0 0 2 0 0 0 0
vector 237  ApplicationClusteringImplementations.TemperatureSensorNode19.Processor  Voltage  ETV
237	72681 34 0 135 0 0 3 3 3 9 27
vector 238  ApplicationClusteringImplementations.TemperatureSensorNode19.Processor  residualRelative  ETV
238	72715 63 0 135 0 0 3 0.99993518518519 1 2.9998888888889 2.9997777841221
vector 239  ApplicationClusteringImplementations.TemperatureSensorNode19.Processor  residualAbs  ETV
239	72778 55 0 135 0 0 3 10799300 10800000 32398800 3.4989408074e+14
vector 247  ApplicationClusteringImplementations.TemperatureSensorNode20.Processor  "power mode"  ETV
247	72833 20 0 0 0 0 2 0 0 0 0
vector 248  ApplicationClusteringImplementations.TemperatureSensorNode20.Processor  "Sensor Modules Status"  ETV
248	72853 22 0 136 0 0 2 0 0 0 0
vector 249  ApplicationClusteringImplementations.TemperatureSensorNode20.Processor  Voltage  ETV
249	72875 34 0 136 0 0 3 3 3 9 27
vector 250  ApplicationClusteringImplementations.TemperatureSensorNode20.Processor  residualRelative  ETV
250	72909 63 0 136 0 0 3 0.99993518518519 1 2.9998888888889 2.9997777841221
vector 251  ApplicationClusteringImplementations.TemperatureSensorNode20.Processor  residualAbs  ETV
251	72972 55 0 136 0 0 3 10799300 10800000 32398800 3.4989408074e+14
vector 259  ApplicationClusteringImplementations.TemperatureSensorNode21.Processor  "power mode"  ETV
259	73027 20 0 0 0 0 2 0 0 0 0
vector 260  ApplicationClusteringImplementations.TemperatureSensorNode21.Processor  "Sensor Modules Status"  ETV
260	73047 22 0 137 0 0 2 0 0 0 0
vector 261  ApplicationClusteringImplementations.TemperatureSensorNode21.Processor  Voltage  ETV
261	73069 34 0 137 0 0 3 3 3 9 27
vector 262  ApplicationClusteringImplementations.TemperatureSensorNode21.Processor  residualRelative  ETV
262	73103 63 0 137 0 0 3 0.99993518518519 1 2.9998888888889 2.9997777841221
vector 263  ApplicationClusteringImplementations.TemperatureSensorNode21.Processor  residualAbs  ETV
263	73166 55 0 137 0 0 3 10799300 10800000 32398800 3.4989408074e+14
vector 271  ApplicationClusteringImplementations.TemperatureSensorNode22.Processor  "power mode"  ETV
271	73221 20 0 0 0 0 2 0 0 0 0
vector 272  ApplicationClusteringImplementations.TemperatureSensorNode22.Processor  "Sensor Modules Status"  ETV
272	73241 22 0 138 0 0 2 0 0 0 0
vector 273  ApplicationClusteringImplementations.TemperatureSensorNode22.Processor  Voltage  ETV
273	73263 34 0 138 0 0 3 3 3 9 27
vector 274  ApplicationClusteringImplementations.TemperatureSensorNode22.Processor  residualRelative  ETV
274	73297 63 0 138 0 0 3 0.99993518518519 1 2.9998888888889 2.9997777841221
vector 275  ApplicationClusteringImplementations.TemperatureSensorNode22.Processor  residualAbs  ETV
275	73360 55 0 138 0 0 3 10799300 10800000 32398800 3.4989408074e+14
vector 283  ApplicationClusteringImplementations.TemperatureSensorNode23.Processor  "power mode"  ETV
283	73415 20 0 0 0 0 2 0 0 0 0
vector 284  ApplicationClusteringImplementations.TemperatureSensorNode23.Processor  "Sensor Modules Status"  ETV
284	73435 22 0 139 0 0 2 0 0 0 0
vector 285  ApplicationClusteringImplementations.TemperatureSensorNode23.Processor  Voltage  ETV
285	73457 34 0 139 0 0 3 3 3 9 27
vector 286  ApplicationClusteringImplementations.TemperatureSensorNode23.Processor  residualRelative  ETV
286	73491 63 0 139 0 0 3 0.99993518518519 1 2.9998888888889 2.9997777841221
vector 287  ApplicationClusteringImplementations.TemperatureSensorNode23.Processor  residualAbs  ETV
287	73554 55 0 139 0 0 3 10799300 10800000 32398800 3.4989408074e+14
vector 295  ApplicationClusteringImplementations.TemperatureSensorNode24.Processor  "power mode"  ETV
295	73609 20 0 0 0 0 2 0 0 0 0
vector 296  ApplicationClusteringImplementations.TemperatureSensorNode24.Processor  "Sensor Modules Status"  ETV
296	73629 22 0 140 0 0 2 0 0 0 0
vector 297  ApplicationClusteringImplementations.TemperatureSensorNode24.Processor  Voltage  ETV
297	73651 34 0 140 0 0 3 3 3 9 27
vector 298  ApplicationClusteringImplementations.TemperatureSensorNode24.Processor  residualRelative  ETV
298	73685 63 0 140 0 0 3 0.99993518518519 1 2.9998888888889 2.9997777841221
vector 299  ApplicationClusteringImplementations.TemperatureSensorNode24.Processor  residualAbs  ETV
299	73748 55 0 140 0 0 3 10799300 10800000 32398800 3.4989408074e+14
vector 307  ApplicationClusteringImplementations.TemperatureSensorNode25.Processor  "power mode"  ETV
307	73803 20 0 0 0 0 2 0 0 0 0
vector 308  ApplicationClusteringImplementations.TemperatureSensorNode25.Processor  "Sensor Modules Status"  ETV
308	73823 22 0 141 0 0 2 0 0 0 0
vector 309  ApplicationClusteringImplementations.TemperatureSensorNode25.Processor  Voltage  ETV
309	73845 34 0 141 0 0 3 3 3 9 27
vector 310  ApplicationClusteringImplementations.TemperatureSensorNode25.Processor  residualRelative  ETV
310	73879 63 0 141 0 0 3 0.99993518518519 1 2.9998888888889 2.9997777841221
vector 311  ApplicationClusteringImplementations.TemperatureSensorNode25.Processor  residualAbs  ETV
311	73942 55 0 141 0 0 3 10799300 10800000 32398800 3.4989408074e+14
vector 319  ApplicationClusteringImplementations.TemperatureSensorNode26.Processor  "power mode"  ETV
319	73997 20 0 0 0 0 2 0 0 0 0
vector 320  ApplicationClusteringImplementations.TemperatureSensorNode26.Processor  "Sensor Modules Status"  ETV
320	74017 22 0 142 0 0 2 0 0 0 0
vector 321  ApplicationClusteringImplementations.TemperatureSensorNode26.Processor  Voltage  ETV
321	74039 34 0 142 0 0 3 3 3 9 27
vector 322  ApplicationClusteringImplementations.TemperatureSensorNode26.Processor  residualRelative  ETV
322	74073 63 0 142 0 0 3 0.99993518518519 1 2.9998888888889 2.9997777841221
vector 323  ApplicationClusteringImplementations.TemperatureSensorNode26.Processor  residualAbs  ETV
323	74136 55 0 142 0 0 3 10799300 10800000 32398800 3.4989408074e+14
vector 331  ApplicationClusteringImplementations.TemperatureSensorNode27.Processor  "power mode"  ETV
331	74191 20 0 0 0 0 2 0 0 0 0
vector 332  ApplicationClusteringImplementations.TemperatureSensorNode27.Processor  "Sensor Modules Status"  ETV
332	74211 22 0 143 0 0 2 0 0 0 0
vector 333  ApplicationClusteringImplementations.TemperatureSensorNode27.Processor  Voltage  ETV
333	74233 34 0 143 0 0 3 3 3 9 27
vector 334  ApplicationClusteringImplementations.TemperatureSensorNode27.Processor  residualRelative  ETV
334	74267 63 0 143 0 0 3 0.99993518518519 1 2.9998888888889 2.9997777841221
vector 335  ApplicationClusteringImplementations.TemperatureSensorNode27.Processor  residualAbs  ETV
335	74330 55 0 143 0 0 3 10799300 10800000 32398800 3.4989408074e+14
vector 343  ApplicationClusteringImplementations.TemperatureSensorNode28.Processor  "power mode"  ETV
343	74385 20 0 0 0 0 2 0 0 0 0
vector 344  ApplicationClusteringImplementations.TemperatureSensorNode28.Processor  "Sensor Modules Status"  ETV
344	74405 22 0 144 0 0 2 0 0 0 0
vector 345  ApplicationClusteringImplementations.TemperatureSensorNode28.Processor  Voltage  ETV
345	74427 34 0 144 0 0 3 3 3 9 27
vector 346  ApplicationClusteringImplementations.TemperatureSensorNode28.Processor  residualRelative  ETV
346	74461 63 0 144 0 0 3 0.99993518518519 1 2.9998888888889 2.9997777841221
vector 347  ApplicationClusteringImplementations.TemperatureSensorNode28.Processor  residualAbs  ETV
347	74524 55 0 144 0 0 3 10799300 10800000 32398800 3.4989408074e+14
vector 355  ApplicationClusteringImplementations.TemperatureSensorNode29.Processor  "power mode"  ETV
355	74579 20 0 0 0 0 2 0 0 0 0
vector 356  ApplicationClusteringImplementations.TemperatureSensorNode29.Processor  "Sensor Modules Status"  ETV
356	74599 22 0 145 0 0 2 0 0 0 0
vector 357  ApplicationClusteringImplementations.TemperatureSensorNode29.Processor  Voltage  ETV
357	74621 34 0 145 0 0 3 3 3 9 27
vector 358  ApplicationClusteringImplementations.TemperatureSensorNode29.Processor  residualRelative  ETV
358	74655 63 0 145 0 0 3 0.99993518518519 1 2.9998888888889 2.9997777841221
vector 359  ApplicationClusteringImplementations.TemperatureSensorNode29.Processor  residualAbs  ETV
359	74718 55 0 145 0 0 3 10799300 10800000 32398800 3.4989408074e+14
vector 367  ApplicationClusteringImplementations.TemperatureSensorNode30.Processor  "power mode"  ETV
367	74773 20 0 0 0 0 2 0 0 0 0
vector 368  ApplicationClusteringImplementations.TemperatureSensorNode30.Processor  "Sensor Modules Status"  ETV
368	74793 22 0 146 0 0 2 0 0 0 0
vector 369  ApplicationClusteringImplementations.TemperatureSensorNode30.Processor  Voltage  ETV
369	74815 34 0 146 0 0 3 3 3 9 27
vector 370  ApplicationClusteringImplementations.TemperatureSensorNode30.Processor  residualRelative  ETV
370	74849 63 0 146 0 0 3 0.99993518518519 1 2.9998888888889 2.9997777841221
vector 371  ApplicationClusteringImplementations.TemperatureSensorNode30.Processor  residualAbs  ETV
371	74912 55 0 146 0 0 3 10799300 10800000 32398800 3.4989408074e+14
vector 379  ApplicationClusteringImplementations.TemperatureSensorNode31.Processor  "power mode"  ETV
379	74967 20 0 0 0 0 2 0 0 0 0
vector 380  ApplicationClusteringImplementations.TemperatureSensorNode31.Processor  "Sensor Modules Status"  ETV
380	74987 22 0 147 0 0 2 0 0 0 0
vector 381  ApplicationClusteringImplementations.TemperatureSensorNode31.Processor  Voltage  ETV
381	75009 34 0 147 0 0 3 3 3 9 27
vector 382  ApplicationClusteringImplementations.TemperatureSensorNode31.Processor  residualRelative  ETV
382	75043 63 0 147 0 0 3 0.99993518518519 1 2.9998888888889 2.9997777841221
vector 383  ApplicationClusteringImplementations.TemperatureSensorNode31.Processor  residualAbs  ETV
383	75106 55 0 147 0 0 3 10799300 10800000 32398800 3.4989408074e+14
vector 391  ApplicationClusteringImplementations.TemperatureSensorNode32.Processor  "power mode"  ETV
391	75161 20 0 0 0 0 2 0 0 0 0
vector 392  ApplicationClusteringImplementations.TemperatureSensorNode32.Processor  "Sensor Modules Status"  ETV
392	75181 22 0 148 0 0 2 0 0 0 0
vector 393  ApplicationClusteringImplementations.TemperatureSensorNode32.Processor  Voltage  ETV
393	75203 34 0 148 0 0 3 3 3 9 27
vector 394  ApplicationClusteringImplementations.TemperatureSensorNode32.Processor  residualRelative  ETV
394	75237 63 0 148 0 0 3 0.99993518518519 1 2.9998888888889 2.9997777841221
vector 395  ApplicationClusteringImplementations.TemperatureSensorNode32.Processor  residualAbs  ETV
395	75300 55 0 148 0 0 3 10799300 10800000 32398800 3.4989408074e+14
vector 403  ApplicationClusteringImplementations.TemperatureSensorNode33.Processor  "power mode"  ETV
403	75355 20 0 0 0 0 2 0 0 0 0
vector 404  ApplicationClusteringImplementations.TemperatureSensorNode33.Processor  "Sensor Modules Status"  ETV
404	75375 22 0 149 0 0 2 0 0 0 0
vector 405  ApplicationClusteringImplementations.TemperatureSensorNode33.Processor  Voltage  ETV
405	75397 34 0 149 0 0 3 3 3 9 27
vector 406  ApplicationClusteringImplementations.TemperatureSensorNode33.Processor  residualRelative  ETV
406	75431 63 0 149 0 0 3 0.99993518518519 1 2.9998888888889 2.9997777841221
vector 407  ApplicationClusteringImplementations.TemperatureSensorNode33.Processor  residualAbs  ETV
407	75494 55 0 149 0 0 3 10799300 10800000 32398800 3.4989408074e+14
vector 415  ApplicationClusteringImplementations.TemperatureSensorNode34.Processor  "power mode"  ETV
415	75549 20 0 0 0 0 2 0 0 0 0
vector 416  ApplicationClusteringImplementations.TemperatureSensorNode34.Processor  "Sensor Modules Status"  ETV
416	75569 22 0 150 0 0 2 0 0 0 0
vector 417  ApplicationClusteringImplementations.TemperatureSensorNode34.Processor  Voltage  ETV
417	75591 34 0 150 0 0 3 3 3 9 27
vector 418  ApplicationClusteringImplementations.TemperatureSensorNode34.Processor  residualRelative  ETV
418	75625 63 0 150 0 0 3 0.99993518518519 1 2.9998888888889 2.9997777841221
vector 419  ApplicationClusteringImplementations.TemperatureSensorNode34.Processor  residualAbs  ETV
419	75688 55 0 150 0 0 3 10799300 10800000 32398800 3.4989408074e+14
vector 427  ApplicationClusteringImplementations.TemperatureSensorNode35.Processor  "power mode"  ETV
427	75743 20 0 0 0 0 2 0 0 0 0
vector 428  ApplicationClusteringImplementations.TemperatureSensorNode35.Processor  "Sensor Modules Status"  ETV
428	75763 22 0 151 0 0 2 0 0 0 0
vector 429  ApplicationClusteringImplementations.TemperatureSensorNode35.Processor  Voltage  ETV
429	75785 34 0 151 0 0 3 3 3 9 27
vector 430  ApplicationClusteringImplementations.TemperatureSensorNode35.Processor  residualRelative  ETV
430	75819 63 0 151 0 0 3 0.99993518518519 1 2.9998888888889 2.9997777841221
vector 431  ApplicationClusteringImplementations.TemperatureSensorNode35.Processor  residualAbs  ETV
431	75882 55 0 151 0 0 3 10799300 10800000 32398800 3.4989408074e+14
vector 439  ApplicationClusteringImplementations.TemperatureSensorNode36.Processor  "power mode"  ETV
439	75937 20 0 0 0 0 2 0 0 0 0
vector 440  ApplicationClusteringImplementations.TemperatureSensorNode36.Processor  "Sensor Modules Status"  ETV
440	75957 22 0 152 0 0 2 0 0 0 0
vector 441  ApplicationClusteringImplementations.TemperatureSensorNode36.Processor  Voltage  ETV
441	75979 34 0 152 0 0 3 3 3 9 27
vector 442  ApplicationClusteringImplementations.TemperatureSensorNode36.Processor  residualRelative  ETV
442	76013 63 0 152 0 0 3 0.99993518518519 1 2.9998888888889 2.9997777841221
vector 443  ApplicationClusteringImplementations.TemperatureSensorNode36.Processor  residualAbs  ETV
443	76076 55 0 152 0 0 3 10799300 10800000 32398800 3.4989408074e+14
vector 451  ApplicationClusteringImplementations.TemperatureSensorNode37.Processor  "power mode"  ETV
451	76131 20 0 0 0 0 2 0 0 0 0
vector 452  ApplicationClusteringImplementations.TemperatureSensorNode37.Processor  "Sensor Modules Status"  ETV
452	76151 22 0 153 0 0 2 0 0 0 0
vector 453  ApplicationClusteringImplementations.TemperatureSensorNode37.Processor  Voltage  ETV
453	76173 34 0 153 0 0 3 3 3 9 27
vector 454  ApplicationClusteringImplementations.TemperatureSensorNode37.Processor  residualRelative  ETV
454	76207 63 0 153 0 0 3 0.99993518518519 1 2.9998888888889 2.9997777841221
vector 455  ApplicationClusteringImplementations.TemperatureSensorNode37.Processor  residualAbs  ETV
455	76270 55 0 153 0 0 3 10799300 10800000 32398800 3.4989408074e+14
vector 463  ApplicationClusteringImplementations.TemperatureSensorNode.TemperatureSensor.SensingUnit  "Energy Consumptions"  ETV
463	76325 36 0 0 0 0 3 100 100 300 30000
vector 464  ApplicationClusteringImplementations.TemperatureSensorNode.TemperatureSensor.SensingUnit  "Current use over time"  ETV
464	76361 10 0 0 0 0 1 3 3 3 9
vector 465  ApplicationClusteringImplementations.TemperatureSensorNode.TemperatureSensor.SignalConditioner  "Energy Consumptions"  ETV
465	76371 24 0 2 0 0 2 100 100 200 20000
vector 466  ApplicationClusteringImplementations.TemperatureSensorNode.TemperatureSensor.SignalConditioner  "Current use over time"  ETV
466	76395 10 0 0 0 0 1 3 3 3 9