file 85224 1450184222                                           
version 2
run General-0-20151109-12:57:37-11109
attr configname General
attr datetime 20151109-12:57:37
attr experiment General
attr inifile omnetpp.ini
attr iterationvars ""
attr iterationvars2 $repetition=0
attr measurement ""
attr network ApplicationClusteringImplementations
attr processid 11109
attr repetition 0
attr replication #0
attr resultdir results
attr runnumber 0
attr seedset 0
vector 7  ApplicationClusteringImplementations.TemperatureSensorNode.Processor  "power mode"  ETV
7	69651 18 0 0 0 0 2 0 0 0 0
vector 8  ApplicationClusteringImplementations.TemperatureSensorNode.Processor  "Sensor Modules Status"  ETV
8	69669 20 0 116 0 0 2 0 0 0 0
vector 9  ApplicationClusteringImplementations.TemperatureSensorNode.Processor  Voltage  ETV
9	69689 31 0 116 0 0 3 3 3 9 27
vector 10  ApplicationClusteringImplementations.TemperatureSensorNode.Processor  residualRelative  ETV
10	69720 63 0 116 0 0 3 0.99993518518519 1 2.9998888888889 2.9997777841221
vector 11  ApplicationClusteringImplementations.TemperatureSensorNode.Processor  residualAbs  ETV
11	69783 55 0 116 0 0 3 10799300 10800000 32398800 3.4989408074e+014
vector 19  ApplicationClusteringImplementations.TemperatureSensorNode1.Processor  "power mode"  ETV
19	69838 20 0 0 0 0 2 0 0 0 0
vector 20  ApplicationClusteringImplementations.TemperatureSensorNode1.Processor  "Sensor Modules Status"  ETV
20	69858 22 0 117 0 0 2 0 0 0 0
vector 21  ApplicationClusteringImplementations.TemperatureSensorNode1.Processor  Voltage  ETV
21	69880 34 0 117 0 0 3 3 3 9 27
vector 22  ApplicationClusteringImplementations.TemperatureSensorNode1.Processor  residualRelative  ETV
22	69914 63 0 117 0 0 3 0.99993518518519 1 2.9998888888889 2.9997777841221
vector 23  ApplicationClusteringImplementations.TemperatureSensorNode1.Processor  residualAbs  ETV
23	69977 55 0 117 0 0 3 10799300 10800000 32398800 3.4989408074e+014
vector 31  ApplicationClusteringImplementations.TemperatureSensorNode2.Processor  "power mode"  ETV
31	70032 20 0 0 0 0 2 0 0 0 0
vector 32  ApplicationClusteringImplementations.TemperatureSensorNode2.Processor  "Sensor Modules Status"  ETV
32	70052 22 0 118 0 0 2 0 0 0 0
vector 33  ApplicationClusteringImplementations.TemperatureSensorNode2.Processor  Voltage  ETV
33	70074 34 0 118 0 0 3 3 3 9 27
vector 34  ApplicationClusteringImplementations.TemperatureSensorNode2.Processor  residualRelative  ETV
34	70108 63 0 118 0 0 3 0.99993518518519 1 2.9998888888889 2.9997777841221
vector 35  ApplicationClusteringImplementations.TemperatureSensorNode2.Processor  residualAbs  ETV
35	70171 55 0 118 0 0 3 10799300 10800000 32398800 3.4989408074e+014
vector 43  ApplicationClusteringImplementations.TemperatureSensorNode3.Processor  "power mode"  ETV
43	70226 20 0 0 0 0 2 0 0 0 0
vector 44  ApplicationClusteringImplementations.TemperatureSensorNode3.Processor  "Sensor Modules Status"  ETV
44	70246 22 0 119 0 0 2 0 0 0 0
vector 45  ApplicationClusteringImplementations.TemperatureSensorNode3.Processor  Voltage  ETV
45	70268 34 0 119 0 0 3 3 3 9 27
vector 46  ApplicationClusteringImplementations.TemperatureSensorNode3.Processor  residualRelative  ETV
46	70302 63 0 119 0 0 3 0.99993518518519 1 2.9998888888889 2.9997777841221
vector 47  ApplicationClusteringImplementations.TemperatureSensorNode3.Processor  residualAbs  ETV
47	70365 55 0 119 0 0 3 10799300 10800000 32398800 3.4989408074e+014
vector 55  ApplicationClusteringImplementations.TemperatureSensorNode4.Processor  "power mode"  ETV
55	70420 20 0 0 0 0 2 0 0 0 0
vector 56  ApplicationClusteringImplementations.TemperatureSensorNode4.Processor  "Sensor Modules Status"  ETV
56	70440 22 0 120 0 0 2 0 0 0 0
vector 57  ApplicationClusteringImplementations.TemperatureSensorNode4.Processor  Voltage  ETV
57	70462 34 0 120 0 0 3 3 3 9 27
vector 58  ApplicationClusteringImplementations.TemperatureSensorNode4.Processor  residualRelative  ETV
58	70496 63 0 120 0 0 3 0.99993518518519 1 2.9998888888889 2.9997777841221
vector 59  ApplicationClusteringImplementations.TemperatureSensorNode4.Processor  residualAbs  ETV
59	70559 55 0 120 0 0 3 10799300 10800000 32398800 3.4989408074e+014
vector 67  ApplicationClusteringImplementations.TemperatureSensorNode5.Processor  "power mode"  ETV
67	70614 20 0 0 0 0 2 0 0 0 0
vector 68  ApplicationClusteringImplementations.TemperatureSensorNode5.Processor  "Sensor Modules Status"  ETV
68	70634 22 0 121 0 0 2 0 0 0 0
vector 69  ApplicationClusteringImplementations.TemperatureSensorNode5.Processor  Voltage  ETV
69	70656 34 0 121 0 0 3 3 3 9 27
vector 70  ApplicationClusteringImplementations.TemperatureSensorNode5.Processor  residualRelative  ETV
70	70690 63 0 121 0 0 3 0.99993518518519 1 2.9998888888889 2.9997777841221
vector 71  ApplicationClusteringImplementations.TemperatureSensorNode5.Processor  residualAbs  ETV
71	70753 55 0 121 0 0 3 10799300 10800000 32398800 3.4989408074e+014
vector 79  ApplicationClusteringImplementations.TemperatureSensorNode6.Processor  "power mode"  ETV
79	70808 20 0 0 0 0 2 0 0 0 0
vector 80  ApplicationClusteringImplementations.TemperatureSensorNode6.Processor  "Sensor Modules Status"  ETV
80	70828 22 0 122 0 0 2 0 0 0 0
vector 81  ApplicationClusteringImplementations.TemperatureSensorNode6.Processor  Voltage  ETV
81	70850 34 0 122 0 0 3 3 3 9 27
vector 82  ApplicationClusteringImplementations.TemperatureSensorNode6.Processor  residualRelative  ETV
82	70884 63 0 122 0 0 3 0.99993518518519 1 2.9998888888889 2.9997777841221
vector 83  ApplicationClusteringImplementations.TemperatureSensorNode6.Processor  residualAbs  ETV
83	70947 55 0 122 0 0 3 10799300 10800000 32398800 3.4989408074e+014
vector 91  ApplicationClusteringImplementations.TemperatureSensorNode7.Processor  "power mode"  ETV
91	71002 20 0 0 0 0 2 0 0 0 0
vector 92  ApplicationClusteringImplementations.TemperatureSensorNode7.Processor  "Sensor Modules Status"  ETV
92	71022 22 0 123 0 0 2 0 0 0 0
vector 93  ApplicationClusteringImplementations.TemperatureSensorNode7.Processor  Voltage  ETV
93	71044 34 0 123 0 0 3 3 3 9 27
vector 94  ApplicationClusteringImplementations.TemperatureSensorNode7.Processor  residualRelative  ETV
94	71078 63 0 123 0 0 3 0.99993518518519 1 2.9998888888889 2.9997777841221
vector 95  ApplicationClusteringImplementations.TemperatureSensorNode7.Processor  residualAbs  ETV
95	71141 55 0 123 0 0 3 10799300 10800000 32398800 3.4989408074e+014
vector 103  ApplicationClusteringImplementations.TemperatureSensorNode8.Processor  "power mode"  ETV
103	71196 22 0 0 0 0 2 0 0 0 0
vector 104  ApplicationClusteringImplementations.TemperatureSensorNode8.Processor  "Sensor Modules Status"  ETV
104	71218 24 0 124 0 0 2 0 0 0 0
vector 105  ApplicationClusteringImplementations.TemperatureSensorNode8.Processor  Voltage  ETV
105	71242 37 0 124 0 0 3 3 3 9 27
vector 106  ApplicationClusteringImplementations.TemperatureSensorNode8.Processor  residualRelative  ETV
106	71279 66 0 124 0 0 3 0.99993518518519 1 2.9998888888889 2.9997777841221
vector 107  ApplicationClusteringImplementations.TemperatureSensorNode8.Processor  residualAbs  ETV
107	71345 58 0 124 0 0 3 10799300 10800000 32398800 3.4989408074e+014
vector 115  ApplicationClusteringImplementations.TemperatureSensorNode9.Processor  "power mode"  ETV
115	71403 22 0 0 0 0 2 0 0 0 0
vector 116  ApplicationClusteringImplementations.TemperatureSensorNode9.Processor  "Sensor Modules Status"  ETV
116	71425 24 0 125 0 0 2 0 0 0 0
vector 117  ApplicationClusteringImplementations.TemperatureSensorNode9.Processor  Voltage  ETV
117	71449 37 0 125 0 0 3 3 3 9 27
vector 118  ApplicationClusteringImplementations.TemperatureSensorNode9.Processor  residualRelative  ETV
118	71486 66 0 125 0 0 3 0.99993518518519 1 2.9998888888889 2.9997777841221
vector 119  ApplicationClusteringImplementations.TemperatureSensorNode9.Processor  residualAbs  ETV
119	71552 58 0 125 0 0 3 10799300 10800000 32398800 3.4989408074e+014
vector 127  ApplicationClusteringImplementations.TemperatureSensorNode10.Processor  "power mode"  ETV
127	71610 22 0 0 0 0 2 0 0 0 0
vector 128  ApplicationClusteringImplementations.TemperatureSensorNode10.Processor  "Sensor Modules Status"  ETV
128	71632 24 0 126 0 0 2 0 0 0 0
vector 129  ApplicationClusteringImplementations.TemperatureSensorNode10.Processor  Voltage  ETV
129	71656 37 0 126 0 0 3 3 3 9 27
vector 130  ApplicationClusteringImplementations.TemperatureSensorNode10.Processor  residualRelative  ETV
130	71693 66 0 126 0 0 3 0.99993518518519 1 2.9998888888889 2.9997777841221
vector 131  ApplicationClusteringImplementations.TemperatureSensorNode10.Processor  residualAbs  ETV
131	71759 58 0 126 0 0 3 10799300 10800000 32398800 3.4989408074e+014
vector 139  ApplicationClusteringImplementations.TemperatureSensorNode11.Processor  "power mode"  ETV
139	71817 22 0 0 0 0 2 0 0 0 0
vector 140  ApplicationClusteringImplementations.TemperatureSensorNode11.Processor  "Sensor Modules Status"  ETV
140	71839 24 0 127 0 0 2 0 0 0 0
vector 141  ApplicationClusteringImplementations.TemperatureSensorNode11.Processor  Voltage  ETV
141	71863 37 0 127 0 0 3 3 3 9 27
vector 142  ApplicationClusteringImplementations.TemperatureSensorNode11.Processor  residualRelative  ETV
142	71900 66 0 127 0 0 3 0.99993518518519 1 2.9998888888889 2.9997777841221
vector 143  ApplicationClusteringImplementations.TemperatureSensorNode11.Processor  residualAbs  ETV
143	71966 58 0 127 0 0 3 10799300 10800000 32398800 3.4989408074e+014
vector 151  ApplicationClusteringImplementations.TemperatureSensorNode12.Processor  "power mode"  ETV
151	72024 22 0 0 0 0 2 0 0 0 0
vector 152  ApplicationClusteringImplementations.TemperatureSensorNode12.Processor  "Sensor Modules Status"  ETV
152	72046 24 0 128 0 0 2 0 0 0 0
vector 153  ApplicationClusteringImplementations.TemperatureSensorNode12.Processor  Voltage  ETV
153	72070 37 0 128 0 0 3 3 3 9 27
vector 154  ApplicationClusteringImplementations.TemperatureSensorNode12.Processor  residualRelative  ETV
154	72107 66 0 128 0 0 3 0.99993518518519 1 2.9998888888889 2.9997777841221
vector 155  ApplicationClusteringImplementations.TemperatureSensorNode12.Processor  residualAbs  ETV
155	72173 58 0 128 0 0 3 10799300 10800000 32398800 3.4989408074e+014
vector 163  ApplicationClusteringImplementations.TemperatureSensorNode13.Processor  "power mode"  ETV
163	72231 22 0 0 0 0 2 0 0 0 0
vector 164  ApplicationClusteringImplementations.TemperatureSensorNode13.Processor  "Sensor Modules Status"  ETV
164	72253 24 0 129 0 0 2 0 0 0 0
vector 165  ApplicationClusteringImplementations.TemperatureSensorNode13.Processor  Voltage  ETV
165	72277 37 0 129 0 0 3 3 3 9 27
vector 166  ApplicationClusteringImplementations.TemperatureSensorNode13.Processor  residualRelative  ETV
166	72314 66 0 129 0 0 3 0.99993518518519 1 2.9998888888889 2.9997777841221
vector 167  ApplicationClusteringImplementations.TemperatureSensorNode13.Processor  residualAbs  ETV
167	72380 58 0 129 0 0 3 10799300 10800000 32398800 3.4989408074e+014
vector 175  ApplicationClusteringImplementations.TemperatureSensorNode14.Processor  "power mode"  ETV
175	72438 22 0 0 0 0 2 0 0 0 0
vector 176  ApplicationClusteringImplementations.TemperatureSensorNode14.Processor  "Sensor Modules Status"  ETV
176	72460 24 0 130 0 0 2 0 0 0 0
vector 177  ApplicationClusteringImplementations.TemperatureSensorNode14.Processor  Voltage  ETV
177	72484 37 0 130 0 0 3 3 3 9 27
vector 178  ApplicationClusteringImplementations.TemperatureSensorNode14.Processor  residualRelative  ETV
178	72521 66 0 130 0 0 3 0.99993518518519 1 2.9998888888889 2.9997777841221
vector 179  ApplicationClusteringImplementations.TemperatureSensorNode14.Processor  residualAbs  ETV
179	72587 58 0 130 0 0 3 10799300 10800000 32398800 3.4989408074e+014
vector 187  ApplicationClusteringImplementations.TemperatureSensorNode15.Processor  "power mode"  ETV
187	72645 22 0 0 0 0 2 0 0 0 0
vector 188  ApplicationClusteringImplementations.TemperatureSensorNode15.Processor  "Sensor Modules Status"  ETV
188	72667 24 0 131 0 0 2 0 0 0 0
vector 189  ApplicationClusteringImplementations.TemperatureSensorNode15.Processor  Voltage  ETV
189	72691 37 0 131 0 0 3 3 3 9 27
vector 190  ApplicationClusteringImplementations.TemperatureSensorNode15.Processor  residualRelative  ETV
190	72728 66 0 131 0 0 3 0.99993518518519 1 2.9998888888889 2.9997777841221
vector 191  ApplicationClusteringImplementations.TemperatureSensorNode15.Processor  residualAbs  ETV
191	72794 58 0 131 0 0 3 10799300 10800000 32398800 3.4989408074e+014
vector 199  ApplicationClusteringImplementations.TemperatureSensorNode16.Processor  "power mode"  ETV
199	72852 22 0 0 0 0 2 0 0 0 0
vector 200  ApplicationClusteringImplementations.TemperatureSensorNode16.Processor  "Sensor Modules Status"  ETV
200	72874 24 0 132 0 0 2 0 0 0 0
vector 201  ApplicationClusteringImplementations.TemperatureSensorNode16.Processor  Voltage  ETV
201	72898 37 0 132 0 0 3 3 3 9 27
vector 202  ApplicationClusteringImplementations.TemperatureSensorNode16.Processor  residualRelative  ETV
202	72935 66 0 132 0 0 3 0.99993518518519 1 2.9998888888889 2.9997777841221
vector 203  ApplicationClusteringImplementations.TemperatureSensorNode16.Processor  residualAbs  ETV
203	73001 58 0 132 0 0 3 10799300 10800000 32398800 3.4989408074e+014
vector 211  ApplicationClusteringImplementations.TemperatureSensorNode17.Processor  "power mode"  ETV
211	73059 22 0 0 0 0 2 0 0 0 0
vector 212  ApplicationClusteringImplementations.TemperatureSensorNode17.Processor  "Sensor Modules Status"  ETV
212	73081 24 0 133 0 0 2 0 0 0 0
vector 213  ApplicationClusteringImplementations.TemperatureSensorNode17.Processor  Voltage  ETV
213	73105 37 0 133 0 0 3 3 3 9 27
vector 214  ApplicationClusteringImplementations.TemperatureSensorNode17.Processor  residualRelative  ETV
214	73142 66 0 133 0 0 3 0.99993518518519 1 2.9998888888889 2.9997777841221
vector 215  ApplicationClusteringImplementations.TemperatureSensorNode17.Processor  residualAbs  ETV
215	73208 58 0 133 0 0 3 10799300 10800000 32398800 3.4989408074e+014
vector 223  ApplicationClusteringImplementations.TemperatureSensorNode18.Processor  "power mode"  ETV
223	73266 22 0 0 0 0 2 0 0 0 0
vector 224  ApplicationClusteringImplementations.TemperatureSensorNode18.Processor  "Sensor Modules Status"  ETV
224	73288 24 0 134 0 0 2 0 0 0 0
vector 225  ApplicationClusteringImplementations.TemperatureSensorNode18.Processor  Voltage  ETV
225	73312 37 0 134 0 0 3 3 3 9 27
vector 226  ApplicationClusteringImplementations.TemperatureSensorNode18.Processor  residualRelative  ETV
226	73349 66 0 134 0 0 3 0.99993518518519 1 2.9998888888889 2.9997777841221
vector 227  ApplicationClusteringImplementations.TemperatureSensorNode18.Processor  residualAbs  ETV
227	73415 58 0 134 0 0 3 10799300 10800000 32398800 3.4989408074e+014
vector 235  ApplicationClusteringImplementations.TemperatureSensorNode19.Processor  "power mode"  ETV
235	73473 22 0 0 0 0 2 0 0 0 0
vector 236  ApplicationClusteringImplementations.TemperatureSensorNode19.Processor  "Sensor Modules Status"  ETV
236	73495 24 0 135 0 0 2 0 0 0 0
vector 237  ApplicationClusteringImplementations.TemperatureSensorNode19.Processor  Voltage  ETV
237	73519 37 0 135 0 0 3 3 3 9 27
vector 238  ApplicationClusteringImplementations.TemperatureSensorNode19.Processor  residualRelative  ETV
238	73556 66 0 135 0 0 3 0.99993518518519 1 2.9998888888889 2.9997777841221
vector 239  ApplicationClusteringImplementations.TemperatureSensorNode19.Processor  residualAbs  ETV
239	73622 58 0 135 0 0 3 10799300 10800000 32398800 3.4989408074e+014
vector 247  ApplicationClusteringImplementations.TemperatureSensorNode20.Processor  "power mode"  ETV
247	73680 22 0 0 0 0 2 0 0 0 0
vector 248  ApplicationClusteringImplementations.TemperatureSensorNode20.Processor  "Sensor Modules Status"  ETV
248	73702 24 0 136 0 0 2 0 0 0 0
vector 249  ApplicationClusteringImplementations.TemperatureSensorNode20.Processor  Voltage  ETV
249	73726 37 0 136 0 0 3 3 3 9 27
vector 250  ApplicationClusteringImplementations.TemperatureSensorNode20.Processor  residualRelative  ETV
250	73763 66 0 136 0 0 3 0.99993518518519 1 2.9998888888889 2.9997777841221
vector 251  ApplicationClusteringImplementations.TemperatureSensorNode20.Processor  residualAbs  ETV
251	73829 58 0 136 0 0 3 10799300 10800000 32398800 3.4989408074e+014
vector 259  ApplicationClusteringImplementations.TemperatureSensorNode21.Processor  "power mode"  ETV
259	73887 22 0 0 0 0 2 0 0 0 0
vector 260  ApplicationClusteringImplementations.TemperatureSensorNode21.Processor  "Sensor Modules Status"  ETV
260	73909 24 0 137 0 0 2 0 0 0 0
vector 261  ApplicationClusteringImplementations.TemperatureSensorNode21.Processor  Voltage  ETV
261	73933 37 0 137 0 0 3 3 3 9 27
vector 262  ApplicationClusteringImplementations.TemperatureSensorNode21.Processor  residualRelative  ETV
262	73970 66 0 137 0 0 3 0.99993518518519 1 2.9998888888889 2.9997777841221
vector 263  ApplicationClusteringImplementations.TemperatureSensorNode21.Processor  residualAbs  ETV
263	74036 58 0 137 0 0 3 10799300 10800000 32398800 3.4989408074e+014
vector 271  ApplicationClusteringImplementations.TemperatureSensorNode22.Processor  "power mode"  ETV
271	74094 22 0 0 0 0 2 0 0 0 0
vector 272  ApplicationClusteringImplementations.TemperatureSensorNode22.Processor  "Sensor Modules Status"  ETV
272	74116 24 0 138 0 0 2 0 0 0 0
vector 273  ApplicationClusteringImplementations.TemperatureSensorNode22.Processor  Voltage  ETV
273	74140 37 0 138 0 0 3 3 3 9 27
vector 274  ApplicationClusteringImplementations.TemperatureSensorNode22.Processor  residualRelative  ETV
274	74177 66 0 138 0 0 3 0.99993518518519 1 2.9998888888889 2.9997777841221
vector 275  ApplicationClusteringImplementations.TemperatureSensorNode22.Processor  residualAbs  ETV
275	74243 58 0 138 0 0 3 10799300 10800000 32398800 3.4989408074e+014
vector 283  ApplicationClusteringImplementations.TemperatureSensorNode23.Processor  "power mode"  ETV
283	74301 22 0 0 0 0 2 0 0 0 0
vector 284  ApplicationClusteringImplementations.TemperatureSensorNode23.Processor  "Sensor Modules Status"  ETV
284	74323 24 0 139 0 0 2 0 0 0 0
vector 285  ApplicationClusteringImplementations.TemperatureSensorNode23.Processor  Voltage  ETV
285	74347 37 0 139 0 0 3 3 3 9 27
vector 286  ApplicationClusteringImplementations.TemperatureSensorNode23.Processor  residualRelative  ETV
286	74384 66 0 139 0 0 3 0.99993518518519 1 2.9998888888889 2.9997777841221
vector 287  ApplicationClusteringImplementations.TemperatureSensorNode23.Processor  residualAbs  ETV
287	74450 58 0 139 0 0 3 10799300 10800000 32398800 3.4989408074e+014
vector 295  ApplicationClusteringImplementations.TemperatureSensorNode24.Processor  "power mode"  ETV
295	74508 22 0 0 0 0 2 0 0 0 0
vector 296  ApplicationClusteringImplementations.TemperatureSensorNode24.Processor  "Sensor Modules Status"  ETV
296	74530 24 0 140 0 0 2 0 0 0 0
vector 297  ApplicationClusteringImplementations.TemperatureSensorNode24.Processor  Voltage  ETV
297	74554 37 0 140 0 0 3 3 3 9 27
vector 298  ApplicationClusteringImplementations.TemperatureSensorNode24.Processor  residualRelative  ETV
298	74591 66 0 140 0 0 3 0.99993518518519 1 2.9998888888889 2.9997777841221
vector 299  ApplicationClusteringImplementations.TemperatureSensorNode24.Processor  residualAbs  ETV
299	74657 58 0 140 0 0 3 10799300 10800000 32398800 3.4989408074e+014
vector 307  ApplicationClusteringImplementations.TemperatureSensorNode25.Processor  "power mode"  ETV
307	74715 22 0 0 0 0 2 0 0 0 0
vector 308  ApplicationClusteringImplementations.TemperatureSensorNode25.Processor  "Sensor Modules Status"  ETV
308	74737 24 0 141 0 0 2 0 0 0 0
vector 309  ApplicationClusteringImplementations.TemperatureSensorNode25.Processor  Voltage  ETV
309	74761 37 0 141 0 0 3 3 3 9 27
vector 310  ApplicationClusteringImplementations.TemperatureSensorNode25.Processor  residualRelative  ETV
310	74798 66 0 141 0 0 3 0.99993518518519 1 2.9998888888889 2.9997777841221
vector 311  ApplicationClusteringImplementations.TemperatureSensorNode25.Processor  residualAbs  ETV
311	74864 58 0 141 0 0 3 10799300 10800000 32398800 3.4989408074e+014
vector 319  ApplicationClusteringImplementations.TemperatureSensorNode26.Processor  "power mode"  ETV
319	74922 22 0 0 0 0 2 0 0 0 0
vector 320  ApplicationClusteringImplementations.TemperatureSensorNode26.Processor  "Sensor Modules Status"  ETV
320	74944 24 0 142 0 0 2 0 0 0 0
vector 321  ApplicationClusteringImplementations.TemperatureSensorNode26.Processor  Voltage  ETV
321	74968 37 0 142 0 0 3 3 3 9 27
vector 322  ApplicationClusteringImplementations.TemperatureSensorNode26.Processor  residualRelative  ETV
322	75005 66 0 142 0 0 3 0.99993518518519 1 2.9998888888889 2.9997777841221
vector 323  ApplicationClusteringImplementations.TemperatureSensorNode26.Processor  residualAbs  ETV
323	75071 58 0 142 0 0 3 10799300 10800000 32398800 3.4989408074e+014
vector 331  ApplicationClusteringImplementations.TemperatureSensorNode27.Processor  "power mode"  ETV
331	75129 22 0 0 0 0 2 0 0 0 0
vector 332  ApplicationClusteringImplementations.TemperatureSensorNode27.Processor  "Sensor Modules Status"  ETV
332	75151 24 0 143 0 0 2 0 0 0 0
vector 333  ApplicationClusteringImplementations.TemperatureSensorNode27.Processor  Voltage  ETV
333	75175 37 0 143 0 0 3 3 3 9 27
vector 334  ApplicationClusteringImplementations.TemperatureSensorNode27.Processor  residualRelative  ETV
334	75212 66 0 143 0 0 3 0.99993518518519 1 2.9998888888889 2.9997777841221
vector 335  ApplicationClusteringImplementations.TemperatureSensorNode27.Processor  residualAbs  ETV
335	75278 58 0 143 0 0 3 10799300 10800000 32398800 3.4989408074e+014
vector 343  ApplicationClusteringImplementations.TemperatureSensorNode28.Processor  "power mode"  ETV
343	75336 22 0 0 0 0 2 0 0 0 0
vector 344  ApplicationClusteringImplementations.TemperatureSensorNode28.Processor  "Sensor Modules Status"  ETV
344	75358 24 0 144 0 0 2 0 0 0 0
vector 345  ApplicationClusteringImplementations.TemperatureSensorNode28.Processor  Voltage  ETV
345	75382 37 0 144 0 0 3 3 3 9 27
vector 346  ApplicationClusteringImplementations.TemperatureSensorNode28.Processor  residualRelative  ETV
346	75419 66 0 144 0 0 3 0.99993518518519 1 2.9998888888889 2.9997777841221
vector 347  ApplicationClusteringImplementations.TemperatureSensorNode28.Processor  residualAbs  ETV
347	75485 58 0 144 0 0 3 10799300 10800000 32398800 3.4989408074e+014
vector 355  ApplicationClusteringImplementations.TemperatureSensorNode29.Processor  "power mode"  ETV
355	75543 22 0 0 0 0 2 0 0 0 0
vector 356  ApplicationClusteringImplementations.TemperatureSensorNode29.Processor  "Sensor Modules Status"  ETV
356	75565 24 0 145 0 0 2 0 0 0 0
vector 357  ApplicationClusteringImplementations.TemperatureSensorNode29.Processor  Voltage  ETV
357	75589 37 0 145 0 0 3 3 3 9 27
vector 358  ApplicationClusteringImplementations.TemperatureSensorNode29.Processor  residualRelative  ETV
358	75626 66 0 145 0 0 3 0.99993518518519 1 2.9998888888889 2.9997777841221
vector 359  ApplicationClusteringImplementations.TemperatureSensorNode29.Processor  residualAbs  ETV
359	75692 58 0 145 0 0 3 10799300 10800000 32398800 3.4989408074e+014
vector 367  ApplicationClusteringImplementations.TemperatureSensorNode30.Processor  "power mode"  ETV
367	75750 22 0 0 0 0 2 0 0 0 0
vector 368  ApplicationClusteringImplementations.TemperatureSensorNode30.Processor  "Sensor Modules Status"  ETV
368	75772 24 0 146 0 0 2 0 0 0 0
vector 369  ApplicationClusteringImplementations.TemperatureSensorNode30.Processor  Voltage  ETV
369	75796 37 0 146 0 0 3 3 3 9 27
vector 370  ApplicationClusteringImplementations.TemperatureSensorNode30.Processor  residualRelative  ETV
370	75833 66 0 146 0 0 3 0.99993518518519 1 2.9998888888889 2.9997777841221
vector 371  ApplicationClusteringImplementations.TemperatureSensorNode30.Processor  residualAbs  ETV
371	75899 58 0 146 0 0 3 10799300 10800000 32398800 3.4989408074e+014
vector 379  ApplicationClusteringImplementations.TemperatureSensorNode31.Processor  "power mode"  ETV
379	75957 22 0 0 0 0 2 0 0 0 0
vector 380  ApplicationClusteringImplementations.TemperatureSensorNode31.Processor  "Sensor Modules Status"  ETV
380	75979 24 0 147 0 0 2 0 0 0 0
vector 381  ApplicationClusteringImplementations.TemperatureSensorNode31.Processor  Voltage  ETV
381	76003 37 0 147 0 0 3 3 3 9 27
vector 382  ApplicationClusteringImplementations.TemperatureSensorNode31.Processor  residualRelative  ETV
382	76040 66 0 147 0 0 3 0.99993518518519 1 2.9998888888889 2.9997777841221
vector 383  ApplicationClusteringImplementations.TemperatureSensorNode31.Processor  residualAbs  ETV
383	76106 58 0 147 0 0 3 10799300 10800000 32398800 3.4989408074e+014
vector 391  ApplicationClusteringImplementations.TemperatureSensorNode32.Processor  "power mode"  ETV
391	76164 22 0 0 0 0 2 0 0 0 0
vector 392  ApplicationClusteringImplementations.TemperatureSensorNode32.Processor  "Sensor Modules Status"  ETV
392	76186 24 0 148 0 0 2 0 0 0 0
vector 393  ApplicationClusteringImplementations.TemperatureSensorNode32.Processor  Voltage  ETV
393	76210 37 0 148 0 0 3 3 3 9 27
vector 394  ApplicationClusteringImplementations.TemperatureSensorNode32.Processor  residualRelative  ETV
394	76247 66 0 148 0 0 3 0.99993518518519 1 2.9998888888889 2.9997777841221
vector 395  ApplicationClusteringImplementations.TemperatureSensorNode32.Processor  residualAbs  ETV
395	76313 58 0 148 0 0 3 10799300 10800000 32398800 3.4989408074e+014
vector 403  ApplicationClusteringImplementations.TemperatureSensorNode33.Processor  "power mode"  ETV
403	76371 22 0 0 0 0 2 0 0 0 0
vector 404  ApplicationClusteringImplementations.TemperatureSensorNode33.Processor  "Sensor Modules Status"  ETV
404	76393 24 0 149 0 0 2 0 0 0 0
vector 405  ApplicationClusteringImplementations.TemperatureSensorNode33.Processor  Voltage  ETV
405	76417 37 0 149 0 0 3 3 3 9 27
vector 406  ApplicationClusteringImplementations.TemperatureSensorNode33.Processor  residualRelative  ETV
406	76454 66 0 149 0 0 3 0.99993518518519 1 2.9998888888889 2.9997777841221
vector 407  ApplicationClusteringImplementations.TemperatureSensorNode33.Processor  residualAbs  ETV
407	76520 58 0 149 0 0 3 10799300 10800000 32398800 3.4989408074e+014
vector 415  ApplicationClusteringImplementations.TemperatureSensorNode34.Processor  "power mode"  ETV
415	76578 22 0 0 0 0 2 0 0 0 0
vector 416  ApplicationClusteringImplementations.TemperatureSensorNode34.Processor  "Sensor Modules Status"  ETV
416	76600 24 0 150 0 0 2 0 0 0 0
vector 417  ApplicationClusteringImplementations.TemperatureSensorNode34.Processor  Voltage  ETV
417	76624 37 0 150 0 0 3 3 3 9 27
vector 418  ApplicationClusteringImplementations.TemperatureSensorNode34.Processor  residualRelative  ETV
418	76661 66 0 150 0 0 3 0.99993518518519 1 2.9998888888889 2.9997777841221
vector 419  ApplicationClusteringImplementations.TemperatureSensorNode34.Processor  residualAbs  ETV
419	76727 58 0 150 0 0 3 10799300 10800000 32398800 3.4989408074e+014
vector 427  ApplicationClusteringImplementations.TemperatureSensorNode35.Processor  "power mode"  ETV
427	76785 22 0 0 0 0 2 0 0 0 0
vector 428  ApplicationClusteringImplementations.TemperatureSensorNode35.Processor  "Sensor Modules Status"  ETV
428	76807 24 0 151 0 0 2 0 0 0 0
vector 429  ApplicationClusteringImplementations.TemperatureSensorNode35.Processor  Voltage  ETV
429	76831 37 0 151 0 0 3 3 3 9 27
vector 430  ApplicationClusteringImplementations.TemperatureSensorNode35.Processor  residualRelative  ETV
430	76868 66 0 151 0 0 3 0.99993518518519 1 2.9998888888889 2.9997777841221
vector 431  ApplicationClusteringImplementations.TemperatureSensorNode35.Processor  residualAbs  ETV
431	76934 58 0 151 0 0 3 10799300 10800000 32398800 3.4989408074e+014
vector 439  ApplicationClusteringImplementations.TemperatureSensorNode36.Processor  "power mode"  ETV
439	76992 22 0 0 0 0 2 0 0 0 0
vector 440  ApplicationClusteringImplementations.TemperatureSensorNode36.Processor  "Sensor Modules Status"  ETV
440	77014 24 0 152 0 0 2 0 0 0 0
vector 441  ApplicationClusteringImplementations.TemperatureSensorNode36.Processor  Voltage  ETV
441	77038 37 0 152 0 0 3 3 3 9 27
vector 442  ApplicationClusteringImplementations.TemperatureSensorNode36.Processor  residualRelative  ETV
442	77075 66 0 152 0 0 3 0.99993518518519 1 2.9998888888889 2.9997777841221
vector 443  ApplicationClusteringImplementations.TemperatureSensorNode36.Processor  residualAbs  ETV
443	77141 58 0 152 0 0 3 10799300 10800000 32398800 3.4989408074e+014
vector 451  ApplicationClusteringImplementations.TemperatureSensorNode37.Processor  "power mode"  ETV
451	77199 22 0 0 0 0 2 0 0 0 0
vector 452  ApplicationClusteringImplementations.TemperatureSensorNode37.Processor  "Sensor Modules Status"  ETV
452	77221 24 0 153 0 0 2 0 0 0 0
vector 453  ApplicationClusteringImplementations.TemperatureSensorNode37.Processor  Voltage  ETV
453	77245 37 0 153 0 0 3 3 3 9 27
vector 454  ApplicationClusteringImplementations.TemperatureSensorNode37.Processor  residualRelative  ETV
454	77282 66 0 153 0 0 3 0.99993518518519 1 2.9998888888889 2.9997777841221
vector 455  ApplicationClusteringImplementations.TemperatureSensorNode37.Processor  residualAbs  ETV
455	77348 58 0 153 0 0 3 10799300 10800000 32398800 3.4989408074e+014
vector 463  ApplicationClusteringImplementations.TemperatureSensorNode.TemperatureSensor.SensingUnit  "Energy Consumptions"  ETV
463	77406 39 0 0 0 0 3 100 100 300 30000
vector 464  ApplicationClusteringImplementations.TemperatureSensorNode.TemperatureSensor.SensingUnit  "Current use over time"  ETV
464	77445 11 0 0 0 0 1 3 3 3 9
vector 465  ApplicationClusteringImplementations.TemperatureSensorNode.TemperatureSensor.SignalConditioner  "Energy Consumptions"  ETV
465	77456 26 0 2 0 0 2 100 100 200 20000
vector 466  ApplicationClusteringImplementations.TemperatureSensorNode.TemperatureSensor.SignalConditioner  "Current use over time"  ETV
466	77482 11 0 0 0 0 1 3 3 3 9