version 2
run General-0-20151112-18:58:26-18961
attr configname General
attr datetime 20151112-18:58:26
attr experiment General
attr inifile omnetpp.ini
attr iterationvars ""
attr iterationvars2 $repetition=0
attr measurement ""
attr network ApplicationClusteringImplementations
attr processid 18961
attr repetition 0
attr replication #0
attr resultdir results
attr runnumber 0
attr seedset 0

vector 7  ApplicationClusteringImplementations.TemperatureSensorNode0.Processor  "power mode"  ETV
vector 8  ApplicationClusteringImplementations.TemperatureSensorNode0.Processor  "Sensor Modules Status"  ETV
vector 9  ApplicationClusteringImplementations.TemperatureSensorNode0.Processor  Voltage  ETV
vector 10  ApplicationClusteringImplementations.TemperatureSensorNode0.Processor  residualRelative  ETV
vector 11  ApplicationClusteringImplementations.TemperatureSensorNode0.Processor  residualAbs  ETV
vector 19  ApplicationClusteringImplementations.TemperatureSensorNode1.Processor  "power mode"  ETV
vector 20  ApplicationClusteringImplementations.TemperatureSensorNode1.Processor  "Sensor Modules Status"  ETV
vector 21  ApplicationClusteringImplementations.TemperatureSensorNode1.Processor  Voltage  ETV
vector 22  ApplicationClusteringImplementations.TemperatureSensorNode1.Processor  residualRelative  ETV
vector 23  ApplicationClusteringImplementations.TemperatureSensorNode1.Processor  residualAbs  ETV
vector 31  ApplicationClusteringImplementations.TemperatureSensorNode2.Processor  "power mode"  ETV
vector 32  ApplicationClusteringImplementations.TemperatureSensorNode2.Processor  "Sensor Modules Status"  ETV
vector 33  ApplicationClusteringImplementations.TemperatureSensorNode2.Processor  Voltage  ETV
vector 34  ApplicationClusteringImplementations.TemperatureSensorNode2.Processor  residualRelative  ETV
vector 35  ApplicationClusteringImplementations.TemperatureSensorNode2.Processor  residualAbs  ETV
vector 43  ApplicationClusteringImplementations.TemperatureSensorNode3.Processor  "power mode"  ETV
vector 44  ApplicationClusteringImplementations.TemperatureSensorNode3.Processor  "Sensor Modules Status"  ETV
vector 45  ApplicationClusteringImplementations.TemperatureSensorNode3.Processor  Voltage  ETV
vector 46  ApplicationClusteringImplementations.TemperatureSensorNode3.Processor  residualRelative  ETV
vector 47  ApplicationClusteringImplementations.TemperatureSensorNode3.Processor  residualAbs  ETV
vector 55  ApplicationClusteringImplementations.TemperatureSensorNode4.Processor  "power mode"  ETV
vector 56  ApplicationClusteringImplementations.TemperatureSensorNode4.Processor  "Sensor Modules Status"  ETV
vector 57  ApplicationClusteringImplementations.TemperatureSensorNode4.Processor  Voltage  ETV
vector 58  ApplicationClusteringImplementations.TemperatureSensorNode4.Processor  residualRelative  ETV
vector 59  ApplicationClusteringImplementations.TemperatureSensorNode4.Processor  residualAbs  ETV
vector 67  ApplicationClusteringImplementations.TemperatureSensorNode5.Processor  "power mode"  ETV
vector 68  ApplicationClusteringImplementations.TemperatureSensorNode5.Processor  "Sensor Modules Status"  ETV
vector 69  ApplicationClusteringImplementations.TemperatureSensorNode5.Processor  Voltage  ETV
vector 70  ApplicationClusteringImplementations.TemperatureSensorNode5.Processor  residualRelative  ETV
vector 71  ApplicationClusteringImplementations.TemperatureSensorNode5.Processor  residualAbs  ETV
vector 79  ApplicationClusteringImplementations.TemperatureSensorNode6.Processor  "power mode"  ETV
vector 80  ApplicationClusteringImplementations.TemperatureSensorNode6.Processor  "Sensor Modules Status"  ETV
vector 81  ApplicationClusteringImplementations.TemperatureSensorNode6.Processor  Voltage  ETV
vector 82  ApplicationClusteringImplementations.TemperatureSensorNode6.Processor  residualRelative  ETV
vector 83  ApplicationClusteringImplementations.TemperatureSensorNode6.Processor  residualAbs  ETV
vector 91  ApplicationClusteringImplementations.TemperatureSensorNode7.Processor  "power mode"  ETV
vector 92  ApplicationClusteringImplementations.TemperatureSensorNode7.Processor  "Sensor Modules Status"  ETV
vector 93  ApplicationClusteringImplementations.TemperatureSensorNode7.Processor  Voltage  ETV
vector 94  ApplicationClusteringImplementations.TemperatureSensorNode7.Processor  residualRelative  ETV
vector 95  ApplicationClusteringImplementations.TemperatureSensorNode7.Processor  residualAbs  ETV
vector 103  ApplicationClusteringImplementations.TemperatureSensorNode8.Processor  "power mode"  ETV
vector 104  ApplicationClusteringImplementations.TemperatureSensorNode8.Processor  "Sensor Modules Status"  ETV
vector 105  ApplicationClusteringImplementations.TemperatureSensorNode8.Processor  Voltage  ETV
vector 106  ApplicationClusteringImplementations.TemperatureSensorNode8.Processor  residualRelative  ETV
vector 107  ApplicationClusteringImplementations.TemperatureSensorNode8.Processor  residualAbs  ETV
vector 115  ApplicationClusteringImplementations.TemperatureSensorNode0.TemperatureSensor.SensingUnit  "Energy Consumptions"  ETV
vector 116  ApplicationClusteringImplementations.TemperatureSensorNode0.TemperatureSensor.SensingUnit  "Current use over time"  ETV
vector 117  ApplicationClusteringImplementations.TemperatureSensorNode0.TemperatureSensor.SignalConditioner  "Energy Consumptions"  ETV
vector 118  ApplicationClusteringImplementations.TemperatureSensorNode0.TemperatureSensor.SignalConditioner  "Current use over time"  ETV
vector 119  ApplicationClusteringImplementations.TemperatureSensorNode0.TemperatureSensor.SignalConverter  "Energy Consumptions"  ETV
vector 120  ApplicationClusteringImplementations.TemperatureSensorNode0.TemperatureSensor.SignalConverter  "Current use over time"  ETV
vector 121  ApplicationClusteringImplementations.TemperatureSensorNode0.TemperatureSensor.Transducer  "Energy Consumptions"  ETV
vector 122  ApplicationClusteringImplementations.TemperatureSensorNode0.TemperatureSensor.Transducer  "Current use over time"  ETV
vector 123  ApplicationClusteringImplementations.TemperatureSensorNode0.Memory  "Energy Consumptions"  ETV
vector 124  ApplicationClusteringImplementations.TemperatureSensorNode0.Memory  "Current use over time"  ETV
vector 132  ApplicationClusteringImplementations.TemperatureSensorNode1.TemperatureSensor.SensingUnit  "Energy Consumptions"  ETV
vector 133  ApplicationClusteringImplementations.TemperatureSensorNode1.TemperatureSensor.SensingUnit  "Current use over time"  ETV
vector 134  ApplicationClusteringImplementations.TemperatureSensorNode1.TemperatureSensor.SignalConditioner  "Energy Consumptions"  ETV
vector 135  ApplicationClusteringImplementations.TemperatureSensorNode1.TemperatureSensor.SignalConditioner  "Current use over time"  ETV
vector 136  ApplicationClusteringImplementations.TemperatureSensorNode1.TemperatureSensor.SignalConverter  "Energy Consumptions"  ETV
vector 137  ApplicationClusteringImplementations.TemperatureSensorNode1.TemperatureSensor.SignalConverter  "Current use over time"  ETV
vector 138  ApplicationClusteringImplementations.TemperatureSensorNode1.TemperatureSensor.Transducer  "Energy Consumptions"  ETV
vector 139  ApplicationClusteringImplementations.TemperatureSensorNode1.TemperatureSensor.Transducer  "Current use over time"  ETV
vector 140  ApplicationClusteringImplementations.TemperatureSensorNode1.Memory  "Energy Consumptions"  ETV
vector 141  ApplicationClusteringImplementations.TemperatureSensorNode1.Memory  "Current use over time"  ETV
vector 149  ApplicationClusteringImplementations.TemperatureSensorNode2.TemperatureSensor.SensingUnit  "Energy Consumptions"  ETV
vector 150  ApplicationClusteringImplementations.TemperatureSensorNode2.TemperatureSensor.SensingUnit  "Current use over time"  ETV
vector 151  ApplicationClusteringImplementations.TemperatureSensorNode2.TemperatureSensor.SignalConditioner  "Energy Consumptions"  ETV
vector 152  ApplicationClusteringImplementations.TemperatureSensorNode2.TemperatureSensor.SignalConditioner  "Current use over time"  ETV
vector 153  ApplicationClusteringImplementations.TemperatureSensorNode2.TemperatureSensor.SignalConverter  "Energy Consumptions"  ETV
vector 154  ApplicationClusteringImplementations.TemperatureSensorNode2.TemperatureSensor.SignalConverter  "Current use over time"  ETV
vector 155  ApplicationClusteringImplementations.TemperatureSensorNode2.TemperatureSensor.Transducer  "Energy Consumptions"  ETV
vector 156  ApplicationClusteringImplementations.TemperatureSensorNode2.TemperatureSensor.Transducer  "Current use over time"  ETV
vector 157  ApplicationClusteringImplementations.TemperatureSensorNode2.Memory  "Energy Consumptions"  ETV
vector 158  ApplicationClusteringImplementations.TemperatureSensorNode2.Memory  "Current use over time"  ETV
vector 166  ApplicationClusteringImplementations.TemperatureSensorNode3.TemperatureSensor.SensingUnit  "Energy Consumptions"  ETV
vector 167  ApplicationClusteringImplementations.TemperatureSensorNode3.TemperatureSensor.SensingUnit  "Current use over time"  ETV
vector 168  ApplicationClusteringImplementations.TemperatureSensorNode3.TemperatureSensor.SignalConditioner  "Energy Consumptions"  ETV
vector 169  ApplicationClusteringImplementations.TemperatureSensorNode3.TemperatureSensor.SignalConditioner  "Current use over time"  ETV
vector 170  ApplicationClusteringImplementations.TemperatureSensorNode3.TemperatureSensor.SignalConverter  "Energy Consumptions"  ETV
vector 171  ApplicationClusteringImplementations.TemperatureSensorNode3.TemperatureSensor.SignalConverter  "Current use over time"  ETV
vector 172  ApplicationClusteringImplementations.TemperatureSensorNode3.TemperatureSensor.Transducer  "Energy Consumptions"  ETV
vector 173  ApplicationClusteringImplementations.TemperatureSensorNode3.TemperatureSensor.Transducer  "Current use over time"  ETV
vector 174  ApplicationClusteringImplementations.TemperatureSensorNode3.Memory  "Energy Consumptions"  ETV
vector 175  ApplicationClusteringImplementations.TemperatureSensorNode3.Memory  "Current use over time"  ETV
vector 183  ApplicationClusteringImplementations.TemperatureSensorNode4.TemperatureSensor.SensingUnit  "Energy Consumptions"  ETV
vector 184  ApplicationClusteringImplementations.TemperatureSensorNode4.TemperatureSensor.SensingUnit  "Current use over time"  ETV
vector 185  ApplicationClusteringImplementations.TemperatureSensorNode4.TemperatureSensor.SignalConditioner  "Energy Consumptions"  ETV
vector 186  ApplicationClusteringImplementations.TemperatureSensorNode4.TemperatureSensor.SignalConditioner  "Current use over time"  ETV
vector 187  ApplicationClusteringImplementations.TemperatureSensorNode4.TemperatureSensor.SignalConverter  "Energy Consumptions"  ETV
vector 188  ApplicationClusteringImplementations.TemperatureSensorNode4.TemperatureSensor.SignalConverter  "Current use over time"  ETV
vector 189  ApplicationClusteringImplementations.TemperatureSensorNode4.TemperatureSensor.Transducer  "Energy Consumptions"  ETV
vector 190  ApplicationClusteringImplementations.TemperatureSensorNode4.TemperatureSensor.Transducer  "Current use over time"  ETV
vector 191  ApplicationClusteringImplementations.TemperatureSensorNode4.Memory  "Energy Consumptions"  ETV
vector 192  ApplicationClusteringImplementations.TemperatureSensorNode4.Memory  "Current use over time"  ETV
vector 200  ApplicationClusteringImplementations.TemperatureSensorNode5.TemperatureSensor.SensingUnit  "Energy Consumptions"  ETV
vector 201  ApplicationClusteringImplementations.TemperatureSensorNode5.TemperatureSensor.SensingUnit  "Current use over time"  ETV
vector 202  ApplicationClusteringImplementations.TemperatureSensorNode5.TemperatureSensor.SignalConditioner  "Energy Consumptions"  ETV
vector 203  ApplicationClusteringImplementations.TemperatureSensorNode5.TemperatureSensor.SignalConditioner  "Current use over time"  ETV
vector 204  ApplicationClusteringImplementations.TemperatureSensorNode5.TemperatureSensor.SignalConverter  "Energy Consumptions"  ETV
vector 205  ApplicationClusteringImplementations.TemperatureSensorNode5.TemperatureSensor.SignalConverter  "Current use over time"  ETV
vector 206  ApplicationClusteringImplementations.TemperatureSensorNode5.TemperatureSensor.Transducer  "Energy Consumptions"  ETV
vector 207  ApplicationClusteringImplementations.TemperatureSensorNode5.TemperatureSensor.Transducer  "Current use over time"  ETV
vector 208  ApplicationClusteringImplementations.TemperatureSensorNode5.Memory  "Energy Consumptions"  ETV
vector 209  ApplicationClusteringImplementations.TemperatureSensorNode5.Memory  "Current use over time"  ETV
vector 217  ApplicationClusteringImplementations.TemperatureSensorNode6.TemperatureSensor.SensingUnit  "Energy Consumptions"  ETV
vector 218  ApplicationClusteringImplementations.TemperatureSensorNode6.TemperatureSensor.SensingUnit  "Current use over time"  ETV
vector 219  ApplicationClusteringImplementations.TemperatureSensorNode6.TemperatureSensor.SignalConditioner  "Energy Consumptions"  ETV
vector 220  ApplicationClusteringImplementations.TemperatureSensorNode6.TemperatureSensor.SignalConditioner  "Current use over time"  ETV
vector 221  ApplicationClusteringImplementations.TemperatureSensorNode6.TemperatureSensor.SignalConverter  "Energy Consumptions"  ETV
vector 222  ApplicationClusteringImplementations.TemperatureSensorNode6.TemperatureSensor.SignalConverter  "Current use over time"  ETV
vector 223  ApplicationClusteringImplementations.TemperatureSensorNode6.TemperatureSensor.Transducer  "Energy Consumptions"  ETV
vector 224  ApplicationClusteringImplementations.TemperatureSensorNode6.TemperatureSensor.Transducer  "Current use over time"  ETV
vector 225  ApplicationClusteringImplementations.TemperatureSensorNode6.Memory  "Energy Consumptions"  ETV
vector 226  ApplicationClusteringImplementations.TemperatureSensorNode6.Memory  "Current use over time"  ETV
vector 234  ApplicationClusteringImplementations.TemperatureSensorNode7.TemperatureSensor.SensingUnit  "Energy Consumptions"  ETV
vector 235  ApplicationClusteringImplementations.TemperatureSensorNode7.TemperatureSensor.SensingUnit  "Current use over time"  ETV
vector 236  ApplicationClusteringImplementations.TemperatureSensorNode7.TemperatureSensor.SignalConditioner  "Energy Consumptions"  ETV
vector 237  ApplicationClusteringImplementations.TemperatureSensorNode7.TemperatureSensor.SignalConditioner  "Current use over time"  ETV
vector 238  ApplicationClusteringImplementations.TemperatureSensorNode7.TemperatureSensor.SignalConverter  "Energy Consumptions"  ETV
vector 239  ApplicationClusteringImplementations.TemperatureSensorNode7.TemperatureSensor.SignalConverter  "Current use over time"  ETV
vector 240  ApplicationClusteringImplementations.TemperatureSensorNode7.TemperatureSensor.Transducer  "Energy Consumptions"  ETV
vector 241  ApplicationClusteringImplementations.TemperatureSensorNode7.TemperatureSensor.Transducer  "Current use over time"  ETV
vector 242  ApplicationClusteringImplementations.TemperatureSensorNode7.Memory  "Energy Consumptions"  ETV
vector 243  ApplicationClusteringImplementations.TemperatureSensorNode7.Memory  "Current use over time"  ETV
vector 251  ApplicationClusteringImplementations.TemperatureSensorNode8.TemperatureSensor.SensingUnit  "Energy Consumptions"  ETV
vector 252  ApplicationClusteringImplementations.TemperatureSensorNode8.TemperatureSensor.SensingUnit  "Current use over time"  ETV
vector 253  ApplicationClusteringImplementations.TemperatureSensorNode8.TemperatureSensor.SignalConditioner  "Energy Consumptions"  ETV
vector 254  ApplicationClusteringImplementations.TemperatureSensorNode8.TemperatureSensor.SignalConditioner  "Current use over time"  ETV
vector 255  ApplicationClusteringImplementations.TemperatureSensorNode8.TemperatureSensor.SignalConverter  "Energy Consumptions"  ETV
vector 256  ApplicationClusteringImplementations.TemperatureSensorNode8.TemperatureSensor.SignalConverter  "Current use over time"  ETV
vector 257  ApplicationClusteringImplementations.TemperatureSensorNode8.TemperatureSensor.Transducer  "Energy Consumptions"  ETV
vector 258  ApplicationClusteringImplementations.TemperatureSensorNode8.TemperatureSensor.Transducer  "Current use over time"  ETV
vector 259  ApplicationClusteringImplementations.TemperatureSensorNode8.Memory  "Energy Consumptions"  ETV
vector 260  ApplicationClusteringImplementations.TemperatureSensorNode8.Memory  "Current use over time"  ETV
7	0	0	0
7	0	0	0
8	0	0	0
8	29	0	0
9	0	0	3
9	29	0	3
9	29	0	3
9	4609	1000	3
9	4609	1000	3
9	4609	1000	3
9	4924	2000	3
9	4924	2000	3
9	4924	2000	3
9	5221	3000	3
9	5221	3000	3
9	5221	3000	3
10	0	0	1
10	29	0	0.9999537037037
10	29	0	0.99993518518519
10	4609	1000	0.98557960182416
10	4609	1000	0.98557960182416
10	4609	1000	0.98496330552787
10	4924	2000	0.97031774997231
10	4924	2000	0.97031774997231
10	4924	2000	0.9700003425649
10	5221	3000	0.95595256478712
10	5221	3000	0.95595256478712
10	5221	3000	0.95503737960194
11	0	0	10800000
11	29	0	10799500
11	29	0	10799300
11	4609	1000	10644259.699701
11	4609	1000	10644259.699701
11	4609	1000	10637603.699701
11	4924	2000	10479431.699701
11	4924	2000	10479431.699701
11	4924	2000	10476003.699701
11	5221	3000	10324287.699701
11	5221	3000	10324287.699701
11	5221	3000	10314403.699701
19	0	0	0
19	0	0	0
20	0	0	0
20	30	0	0
21	0	0	3
21	30	0	3
21	30	0	3
21	4610	1000	3
21	4610	1000	3
21	4610	1000	3
21	4925	2000	3
21	4925	2000	3
21	4925	2000	3
21	5222	3000	3
21	5222	3000	3
21	5222	3000	3
22	0	0	1
22	30	0	0.9999537037037
22	30	0	0.99993518518519
22	4610	1000	0.98557960182416
22	4610	1000	0.98557960182416
22	4610	1000	0.98496330552786
22	4925	2000	0.97031774997231
22	4925	2000	0.97031774997231
22	4925	2000	0.9700003425649
22	5222	3000	0.95595256478712
22	5222	3000	0.95595256478712
22	5222	3000	0.95503737960194
23	0	0	10800000
23	30	0	10799500
23	30	0	10799300
23	4610	1000	10644259.699701
23	4610	1000	10644259.699701
23	4610	1000	10637603.699701
23	4925	2000	10479431.699701
23	4925	2000	10479431.699701
23	4925	2000	10476003.699701
23	5222	3000	10324287.699701
23	5222	3000	10324287.699701
23	5222	3000	10314403.699701
31	0	0	0
31	0	0	0
32	0	0	0
32	31	0	0
33	0	0	3
33	31	0	3
33	31	0	3
33	4611	1000	3
33	4611	1000	3
33	4611	1000	3
33	4926	2000	3
33	4926	2000	3
33	4926	2000	3
33	5223	3000	3
33	5223	3000	3
33	5223	3000	3
34	0	0	1
34	31	0	0.9999537037037
34	31	0	0.99993518518519
34	4611	1000	0.98557954773497
34	4611	1000	0.98557954773497
34	4611	1000	0.98496325143867
34	4926	2000	0.97031769588312
34	4926	2000	0.97031769588312
34	4926	2000	0.97000028847571
34	5223	3000	0.95595251069793
34	5223	3000	0.95595251069793
34	5223	3000	0.95503732551274
35	0	0	10800000
35	31	0	10799500
35	31	0	10799300
35	4611	1000	10644259.115538
35	4611	1000	10644259.115538
35	4611	1000	10637603.115538
35	4926	2000	10479431.115538
35	4926	2000	10479431.115538
35	4926	2000	10476003.115538
35	5223	3000	10324287.115538
35	5223	3000	10324287.115538
35	5223	3000	10314403.115538
43	0	0	0
43	0	0	0
44	0	0	0
44	32	0	0
45	0	0	3
45	32	0	3
45	32	0	3
45	4612	1000	3
45	4612	1000	3
45	4612	1000	3
45	4927	2000	3
45	4927	2000	3
45	4927	2000	3
45	5224	3000	3
45	5224	3000	3
45	5224	3000	3
46	0	0	1
46	32	0	0.9999537037037
46	32	0	0.99993518518519
46	4612	1000	0.98557954773497
46	4612	1000	0.98557954773497
46	4612	1000	0.98496325143867
46	4927	2000	0.97031769588311
46	4927	2000	0.97031769588311
46	4927	2000	0.97000028847571
46	5224	3000	0.95595251069793
46	5224	3000	0.95595251069793
46	5224	3000	0.95503732551274
47	0	0	10800000
47	32	0	10799500
47	32	0	10799300
47	4612	1000	10644259.115538
47	4612	1000	10644259.115538
47	4612	1000	10637603.115538
47	4927	2000	10479431.115538
47	4927	2000	10479431.115538
47	4927	2000	10476003.115538
47	5224	3000	10324287.115538
47	5224	3000	10324287.115538
47	5224	3000	10314403.115538
55	0	0	0
55	0	0	0
56	0	0	0
56	33	0	0
57	0	0	3
57	33	0	3
57	33	0	3
57	4613	1000	3
57	4613	1000	3
57	4613	1000	3
57	4928	2000	3
57	4928	2000	3
57	4928	2000	3
57	5225	3000	3
57	5225	3000	3
57	5225	3000	3
58	0	0	1
58	33	0	0.9999537037037
58	33	0	0.99993518518519
58	4613	1000	0.98557960182416
58	4613	1000	0.98557960182416
58	4613	1000	0.98496330552787
58	4928	2000	0.97031774997231
58	4928	2000	0.97031774997231
58	4928	2000	0.9700003425649
58	5225	3000	0.95595256478713
58	5225	3000	0.95595256478713
58	5225	3000	0.95503737960194
59	0	0	10800000
59	33	0	10799500
59	33	0	10799300
59	4613	1000	10644259.699701
59	4613	1000	10644259.699701
59	4613	1000	10637603.699701
59	4928	2000	10479431.699701
59	4928	2000	10479431.699701
59	4928	2000	10476003.699701
59	5225	3000	10324287.699701
59	5225	3000	10324287.699701
59	5225	3000	10314403.699701
67	0	0	0
67	0	0	0
68	0	0	0
68	34	0	0
69	0	0	3
69	34	0	3
69	34	0	3
69	4614	1000	3
69	4614	1000	3
69	4614	1000	3
69	4929	2000	3
69	4929	2000	3
69	4929	2000	3
69	5226	3000	3
69	5226	3000	3
69	5226	3000	3
70	0	0	1
70	34	0	0.9999537037037
70	34	0	0.99993518518519
70	4614	1000	0.98557952970523
70	4614	1000	0.98557952970523
70	4614	1000	0.98496323340894
70	4929	2000	0.97031767785338
70	4929	2000	0.97031767785338
70	4929	2000	0.97000027044597
70	5226	3000	0.9559524926682
70	5226	3000	0.9559524926682
70	5226	3000	0.95503730748301
71	0	0	10800000
71	34	0	10799500
71	34	0	10799300
71	4614	1000	10644258.920817
71	4614	1000	10644258.920817
71	4614	1000	10637602.920817
71	4929	2000	10479430.920817
71	4929	2000	10479430.920817
71	4929	2000	10476002.920817
71	5226	3000	10324286.920817
71	5226	3000	10324286.920817
71	5226	3000	10314402.920817
79	0	0	0
79	0	0	0
80	0	0	0
80	35	0	0
81	0	0	3
81	35	0	3
81	35	0	3
81	4615	1000	3
81	4615	1000	3
81	4615	1000	3
81	4930	2000	3
81	4930	2000	3
81	4930	2000	3
81	5227	3000	3
81	5227	3000	3
81	5227	3000	3
82	0	0	1
82	35	0	0.9999537037037
82	35	0	0.99993518518519
82	4615	1000	0.98557954773497
82	4615	1000	0.98557954773497
82	4615	1000	0.98496325143867
82	4930	2000	0.97031769588312
82	4930	2000	0.97031769588312
82	4930	2000	0.97000028847571
82	5227	3000	0.95595251069793
82	5227	3000	0.95595251069793
82	5227	3000	0.95503732551275
83	0	0	10800000
83	35	0	10799500
83	35	0	10799300
83	4615	1000	10644259.115538
83	4615	1000	10644259.115538
83	4615	1000	10637603.115538
83	4930	2000	10479431.115538
83	4930	2000	10479431.115538
83	4930	2000	10476003.115538
83	5227	3000	10324287.115538
83	5227	3000	10324287.115538
83	5227	3000	10314403.115538
91	0	0	0
91	0	0	0
92	0	0	0
92	36	0	0
93	0	0	3
93	36	0	3
93	36	0	3
93	4616	1000	3
93	4616	1000	3
93	4616	1000	3
93	4931	2000	3
93	4931	2000	3
93	4931	2000	3
93	5228	3000	3
93	5228	3000	3
93	5228	3000	3
94	0	0	1
94	36	0	0.9999537037037
94	36	0	0.99993518518519
94	4616	1000	0.98557949364577
94	4616	1000	0.98557949364577
94	4616	1000	0.98496319734948
94	4931	2000	0.97031764179392
94	4931	2000	0.97031764179392
94	4931	2000	0.97000023438651
94	5228	3000	0.95595245660874
94	5228	3000	0.95595245660874
94	5228	3000	0.95503727142355
95	0	0	10800000
95	36	0	10799500
95	36	0	10799300
95	4616	1000	10644258.531374
95	4616	1000	10644258.531374
95	4616	1000	10637602.531374
95	4931	2000	10479430.531374
95	4931	2000	10479430.531374
95	4931	2000	10476002.531374
95	5228	3000	10324286.531374
95	5228	3000	10324286.531374
95	5228	3000	10314402.531374
103	0	0	0
103	0	0	0
104	0	0	0
104	37	0	0
105	0	0	3
105	37	0	3
105	37	0	3
105	4617	1000	3
105	4617	1000	3
105	4617	1000	3
105	4932	2000	3
105	4932	2000	3
105	4932	2000	3
105	5229	3000	3
105	5229	3000	3
105	5229	3000	3
106	0	0	1
106	37	0	0.9999537037037
106	37	0	0.99993518518519
106	4617	1000	0.98557960182416
106	4617	1000	0.98557960182416
106	4617	1000	0.98496330552786
106	4932	2000	0.97031774997231
106	4932	2000	0.97031774997231
106	4932	2000	0.9700003425649
106	5229	3000	0.95595256478712
106	5229	3000	0.95595256478712
106	5229	3000	0.95503737960194
107	0	0	10800000
107	37	0	10799500
107	37	0	10799300
107	4617	1000	10644259.699701
107	4617	1000	10644259.699701
107	4617	1000	10637603.699701
107	4932	2000	10479431.699701
107	4932	2000	10479431.699701
107	4932	2000	10476003.699701
107	5229	3000	10324287.699701
107	5229	3000	10324287.699701
107	5229	3000	10314403.699701
115	0	0	100
115	0	0	100
115	0	0	100
116	0	0	3
117	0	0	100
117	2	0	100
118	0	0	3
119	0	0	100
119	11	0	100
120	0	0	3
121	0	0	100
121	20	0	100
122	0	0	3
123	0	0	100
123	38	0	100
124	0	0	3
132	0	0	100
132	0	0	100
132	0	0	100
133	0	0	3
134	0	0	100
134	3	0	100
135	0	0	3
136	0	0	100
136	12	0	100
137	0	0	3
138	0	0	100
138	21	0	100
139	0	0	3
140	0	0	100
140	39	0	100
141	0	0	3
149	0	0	100
149	0	0	100
149	0	0	100
150	0	0	3
151	0	0	100
151	4	0	100
152	0	0	3
153	0	0	100
153	13	0	100
154	0	0	3
155	0	0	100
155	22	0	100
156	0	0	3
157	0	0	100
157	40	0	100
158	0	0	3
166	0	0	100
166	0	0	100
166	0	0	100
167	0	0	3
168	0	0	100
168	5	0	100
169	0	0	3
170	0	0	100
170	14	0	100
171	0	0	3
172	0	0	100
172	23	0	100
173	0	0	3
174	0	0	100
174	41	0	100
175	0	0	3
183	0	0	100
183	0	0	100
183	0	0	100
184	0	0	3
185	0	0	100
185	6	0	100
186	0	0	3
187	0	0	100
187	15	0	100
188	0	0	3
189	0	0	100
189	24	0	100
190	0	0	3
191	0	0	100
191	42	0	100
192	0	0	3
200	0	0	100
200	0	0	100
200	0	0	100
201	0	0	3
202	0	0	100
202	7	0	100
203	0	0	3
204	0	0	100
204	16	0	100
205	0	0	3
206	0	0	100
206	25	0	100
207	0	0	3
208	0	0	100
208	43	0	100
209	0	0	3
217	0	0	100
217	0	0	100
217	0	0	100
218	0	0	3
219	0	0	100
219	8	0	100
220	0	0	3
221	0	0	100
221	17	0	100
222	0	0	3
223	0	0	100
223	26	0	100
224	0	0	3
225	0	0	100
225	44	0	100
226	0	0	3
234	0	0	100
234	0	0	100
234	0	0	100
235	0	0	3
236	0	0	100
236	9	0	100
237	0	0	3
238	0	0	100
238	18	0	100
239	0	0	3
240	0	0	100
240	27	0	100
241	0	0	3
242	0	0	100
242	45	0	100
243	0	0	3
251	0	0	100
251	0	0	100
251	0	0	100
252	0	0	3
253	0	0	100
253	10	0	100
254	0	0	3
255	0	0	100
255	19	0	100
256	0	0	3
257	0	0	100
257	28	0	100
258	0	0	3
259	0	0	100
259	46	0	100
260	0	0	3
