version 2
run General-0-20151116-13:06:21-17492
attr configname General
attr datetime 20151116-13:06:21
attr experiment General
attr inifile omnetpp.ini
attr iterationvars ""
attr iterationvars2 $repetition=0
attr measurement ""
attr network ApplicationClusteringImplementations
attr processid 17492
attr repetition 0
attr replication #0
attr resultdir results
attr runnumber 0
attr seedset 0

vector 7  ApplicationClusteringImplementations.TemperatureSensorNode0.Processor  "power mode"  ETV
vector 8  ApplicationClusteringImplementations.TemperatureSensorNode0.Processor  "Sensor Modules Status"  ETV
vector 9  ApplicationClusteringImplementations.TemperatureSensorNode0.Processor  Voltage  ETV
vector 10  ApplicationClusteringImplementations.TemperatureSensorNode0.Processor  residualRelative  ETV
vector 11  ApplicationClusteringImplementations.TemperatureSensorNode0.Processor  residualAbs  ETV
vector 19  ApplicationClusteringImplementations.TemperatureSensorNode1.Processor  "power mode"  ETV
vector 20  ApplicationClusteringImplementations.TemperatureSensorNode1.Processor  "Sensor Modules Status"  ETV
vector 21  ApplicationClusteringImplementations.TemperatureSensorNode1.Processor  Voltage  ETV
vector 22  ApplicationClusteringImplementations.TemperatureSensorNode1.Processor  residualRelative  ETV
vector 23  ApplicationClusteringImplementations.TemperatureSensorNode1.Processor  residualAbs  ETV
vector 31  ApplicationClusteringImplementations.TemperatureSensorNode2.Processor  "power mode"  ETV
vector 32  ApplicationClusteringImplementations.TemperatureSensorNode2.Processor  "Sensor Modules Status"  ETV
vector 33  ApplicationClusteringImplementations.TemperatureSensorNode2.Processor  Voltage  ETV
vector 34  ApplicationClusteringImplementations.TemperatureSensorNode2.Processor  residualRelative  ETV
vector 35  ApplicationClusteringImplementations.TemperatureSensorNode2.Processor  residualAbs  ETV
vector 43  ApplicationClusteringImplementations.TemperatureSensorNode3.Processor  "power mode"  ETV
vector 44  ApplicationClusteringImplementations.TemperatureSensorNode3.Processor  "Sensor Modules Status"  ETV
vector 45  ApplicationClusteringImplementations.TemperatureSensorNode3.Processor  Voltage  ETV
vector 46  ApplicationClusteringImplementations.TemperatureSensorNode3.Processor  residualRelative  ETV
vector 47  ApplicationClusteringImplementations.TemperatureSensorNode3.Processor  residualAbs  ETV
vector 55  ApplicationClusteringImplementations.TemperatureSensorNode4.Processor  "power mode"  ETV
vector 56  ApplicationClusteringImplementations.TemperatureSensorNode4.Processor  "Sensor Modules Status"  ETV
vector 57  ApplicationClusteringImplementations.TemperatureSensorNode4.Processor  Voltage  ETV
vector 58  ApplicationClusteringImplementations.TemperatureSensorNode4.Processor  residualRelative  ETV
vector 59  ApplicationClusteringImplementations.TemperatureSensorNode4.Processor  residualAbs  ETV
vector 67  ApplicationClusteringImplementations.TemperatureSensorNode5.Processor  "power mode"  ETV
vector 68  ApplicationClusteringImplementations.TemperatureSensorNode5.Processor  "Sensor Modules Status"  ETV
vector 69  ApplicationClusteringImplementations.TemperatureSensorNode5.Processor  Voltage  ETV
vector 70  ApplicationClusteringImplementations.TemperatureSensorNode5.Processor  residualRelative  ETV
vector 71  ApplicationClusteringImplementations.TemperatureSensorNode5.Processor  residualAbs  ETV
vector 79  ApplicationClusteringImplementations.TemperatureSensorNode6.Processor  "power mode"  ETV
vector 80  ApplicationClusteringImplementations.TemperatureSensorNode6.Processor  "Sensor Modules Status"  ETV
vector 81  ApplicationClusteringImplementations.TemperatureSensorNode6.Processor  Voltage  ETV
vector 82  ApplicationClusteringImplementations.TemperatureSensorNode6.Processor  residualRelative  ETV
vector 83  ApplicationClusteringImplementations.TemperatureSensorNode6.Processor  residualAbs  ETV
vector 91  ApplicationClusteringImplementations.TemperatureSensorNode7.Processor  "power mode"  ETV
vector 92  ApplicationClusteringImplementations.TemperatureSensorNode7.Processor  "Sensor Modules Status"  ETV
vector 93  ApplicationClusteringImplementations.TemperatureSensorNode7.Processor  Voltage  ETV
vector 94  ApplicationClusteringImplementations.TemperatureSensorNode7.Processor  residualRelative  ETV
vector 95  ApplicationClusteringImplementations.TemperatureSensorNode7.Processor  residualAbs  ETV
vector 103  ApplicationClusteringImplementations.TemperatureSensorNode8.Processor  "power mode"  ETV
vector 104  ApplicationClusteringImplementations.TemperatureSensorNode8.Processor  "Sensor Modules Status"  ETV
vector 105  ApplicationClusteringImplementations.TemperatureSensorNode8.Processor  Voltage  ETV
vector 106  ApplicationClusteringImplementations.TemperatureSensorNode8.Processor  residualRelative  ETV
vector 107  ApplicationClusteringImplementations.TemperatureSensorNode8.Processor  residualAbs  ETV
vector 115  ApplicationClusteringImplementations.TemperatureSensorNode9.Processor  "power mode"  ETV
vector 116  ApplicationClusteringImplementations.TemperatureSensorNode9.Processor  "Sensor Modules Status"  ETV
vector 117  ApplicationClusteringImplementations.TemperatureSensorNode9.Processor  Voltage  ETV
vector 118  ApplicationClusteringImplementations.TemperatureSensorNode9.Processor  residualRelative  ETV
vector 119  ApplicationClusteringImplementations.TemperatureSensorNode9.Processor  residualAbs  ETV
vector 127  ApplicationClusteringImplementations.TemperatureSensorNode0.TemperatureSensor.SensingUnit  "Energy Consumptions"  ETV
vector 128  ApplicationClusteringImplementations.TemperatureSensorNode0.TemperatureSensor.SensingUnit  "Current use over time"  ETV
vector 129  ApplicationClusteringImplementations.TemperatureSensorNode0.TemperatureSensor.SignalConditioner  "Energy Consumptions"  ETV
vector 130  ApplicationClusteringImplementations.TemperatureSensorNode0.TemperatureSensor.SignalConditioner  "Current use over time"  ETV
vector 131  ApplicationClusteringImplementations.TemperatureSensorNode0.TemperatureSensor.SignalConverter  "Energy Consumptions"  ETV
vector 132  ApplicationClusteringImplementations.TemperatureSensorNode0.TemperatureSensor.SignalConverter  "Current use over time"  ETV
vector 133  ApplicationClusteringImplementations.TemperatureSensorNode0.TemperatureSensor.Transducer  "Energy Consumptions"  ETV
vector 134  ApplicationClusteringImplementations.TemperatureSensorNode0.TemperatureSensor.Transducer  "Current use over time"  ETV
vector 135  ApplicationClusteringImplementations.TemperatureSensorNode0.Memory  "Energy Consumptions"  ETV
vector 136  ApplicationClusteringImplementations.TemperatureSensorNode0.Memory  "Current use over time"  ETV
vector 144  ApplicationClusteringImplementations.TemperatureSensorNode1.TemperatureSensor.SensingUnit  "Energy Consumptions"  ETV
vector 145  ApplicationClusteringImplementations.TemperatureSensorNode1.TemperatureSensor.SensingUnit  "Current use over time"  ETV
vector 146  ApplicationClusteringImplementations.TemperatureSensorNode1.TemperatureSensor.SignalConditioner  "Energy Consumptions"  ETV
vector 147  ApplicationClusteringImplementations.TemperatureSensorNode1.TemperatureSensor.SignalConditioner  "Current use over time"  ETV
vector 148  ApplicationClusteringImplementations.TemperatureSensorNode1.TemperatureSensor.SignalConverter  "Energy Consumptions"  ETV
vector 149  ApplicationClusteringImplementations.TemperatureSensorNode1.TemperatureSensor.SignalConverter  "Current use over time"  ETV
vector 150  ApplicationClusteringImplementations.TemperatureSensorNode1.TemperatureSensor.Transducer  "Energy Consumptions"  ETV
vector 151  ApplicationClusteringImplementations.TemperatureSensorNode1.TemperatureSensor.Transducer  "Current use over time"  ETV
vector 152  ApplicationClusteringImplementations.TemperatureSensorNode1.Memory  "Energy Consumptions"  ETV
vector 153  ApplicationClusteringImplementations.TemperatureSensorNode1.Memory  "Current use over time"  ETV
vector 161  ApplicationClusteringImplementations.TemperatureSensorNode2.TemperatureSensor.SensingUnit  "Energy Consumptions"  ETV
vector 162  ApplicationClusteringImplementations.TemperatureSensorNode2.TemperatureSensor.SensingUnit  "Current use over time"  ETV
vector 163  ApplicationClusteringImplementations.TemperatureSensorNode2.TemperatureSensor.SignalConditioner  "Energy Consumptions"  ETV
vector 164  ApplicationClusteringImplementations.TemperatureSensorNode2.TemperatureSensor.SignalConditioner  "Current use over time"  ETV
vector 165  ApplicationClusteringImplementations.TemperatureSensorNode2.TemperatureSensor.SignalConverter  "Energy Consumptions"  ETV
vector 166  ApplicationClusteringImplementations.TemperatureSensorNode2.TemperatureSensor.SignalConverter  "Current use over time"  ETV
vector 167  ApplicationClusteringImplementations.TemperatureSensorNode2.TemperatureSensor.Transducer  "Energy Consumptions"  ETV
vector 168  ApplicationClusteringImplementations.TemperatureSensorNode2.TemperatureSensor.Transducer  "Current use over time"  ETV
vector 169  ApplicationClusteringImplementations.TemperatureSensorNode2.Memory  "Energy Consumptions"  ETV
vector 170  ApplicationClusteringImplementations.TemperatureSensorNode2.Memory  "Current use over time"  ETV
vector 178  ApplicationClusteringImplementations.TemperatureSensorNode3.TemperatureSensor.SensingUnit  "Energy Consumptions"  ETV
vector 179  ApplicationClusteringImplementations.TemperatureSensorNode3.TemperatureSensor.SensingUnit  "Current use over time"  ETV
vector 180  ApplicationClusteringImplementations.TemperatureSensorNode3.TemperatureSensor.SignalConditioner  "Energy Consumptions"  ETV
vector 181  ApplicationClusteringImplementations.TemperatureSensorNode3.TemperatureSensor.SignalConditioner  "Current use over time"  ETV
vector 182  ApplicationClusteringImplementations.TemperatureSensorNode3.TemperatureSensor.SignalConverter  "Energy Consumptions"  ETV
vector 183  ApplicationClusteringImplementations.TemperatureSensorNode3.TemperatureSensor.SignalConverter  "Current use over time"  ETV
vector 184  ApplicationClusteringImplementations.TemperatureSensorNode3.TemperatureSensor.Transducer  "Energy Consumptions"  ETV
vector 185  ApplicationClusteringImplementations.TemperatureSensorNode3.TemperatureSensor.Transducer  "Current use over time"  ETV
vector 186  ApplicationClusteringImplementations.TemperatureSensorNode3.Memory  "Energy Consumptions"  ETV
vector 187  ApplicationClusteringImplementations.TemperatureSensorNode3.Memory  "Current use over time"  ETV
vector 195  ApplicationClusteringImplementations.TemperatureSensorNode4.TemperatureSensor.SensingUnit  "Energy Consumptions"  ETV
vector 196  ApplicationClusteringImplementations.TemperatureSensorNode4.TemperatureSensor.SensingUnit  "Current use over time"  ETV
vector 197  ApplicationClusteringImplementations.TemperatureSensorNode4.TemperatureSensor.SignalConditioner  "Energy Consumptions"  ETV
vector 198  ApplicationClusteringImplementations.TemperatureSensorNode4.TemperatureSensor.SignalConditioner  "Current use over time"  ETV
vector 199  ApplicationClusteringImplementations.TemperatureSensorNode4.TemperatureSensor.SignalConverter  "Energy Consumptions"  ETV
vector 200  ApplicationClusteringImplementations.TemperatureSensorNode4.TemperatureSensor.SignalConverter  "Current use over time"  ETV
vector 201  ApplicationClusteringImplementations.TemperatureSensorNode4.TemperatureSensor.Transducer  "Energy Consumptions"  ETV
vector 202  ApplicationClusteringImplementations.TemperatureSensorNode4.TemperatureSensor.Transducer  "Current use over time"  ETV
vector 203  ApplicationClusteringImplementations.TemperatureSensorNode4.Memory  "Energy Consumptions"  ETV
vector 204  ApplicationClusteringImplementations.TemperatureSensorNode4.Memory  "Current use over time"  ETV
vector 212  ApplicationClusteringImplementations.TemperatureSensorNode5.TemperatureSensor.SensingUnit  "Energy Consumptions"  ETV
vector 213  ApplicationClusteringImplementations.TemperatureSensorNode5.TemperatureSensor.SensingUnit  "Current use over time"  ETV
vector 214  ApplicationClusteringImplementations.TemperatureSensorNode5.TemperatureSensor.SignalConditioner  "Energy Consumptions"  ETV
vector 215  ApplicationClusteringImplementations.TemperatureSensorNode5.TemperatureSensor.SignalConditioner  "Current use over time"  ETV
vector 216  ApplicationClusteringImplementations.TemperatureSensorNode5.TemperatureSensor.SignalConverter  "Energy Consumptions"  ETV
vector 217  ApplicationClusteringImplementations.TemperatureSensorNode5.TemperatureSensor.SignalConverter  "Current use over time"  ETV
vector 218  ApplicationClusteringImplementations.TemperatureSensorNode5.TemperatureSensor.Transducer  "Energy Consumptions"  ETV
vector 219  ApplicationClusteringImplementations.TemperatureSensorNode5.TemperatureSensor.Transducer  "Current use over time"  ETV
vector 220  ApplicationClusteringImplementations.TemperatureSensorNode5.Memory  "Energy Consumptions"  ETV
vector 221  ApplicationClusteringImplementations.TemperatureSensorNode5.Memory  "Current use over time"  ETV
vector 229  ApplicationClusteringImplementations.TemperatureSensorNode6.TemperatureSensor.SensingUnit  "Energy Consumptions"  ETV
vector 230  ApplicationClusteringImplementations.TemperatureSensorNode6.TemperatureSensor.SensingUnit  "Current use over time"  ETV
vector 231  ApplicationClusteringImplementations.TemperatureSensorNode6.TemperatureSensor.SignalConditioner  "Energy Consumptions"  ETV
vector 232  ApplicationClusteringImplementations.TemperatureSensorNode6.TemperatureSensor.SignalConditioner  "Current use over time"  ETV
vector 233  ApplicationClusteringImplementations.TemperatureSensorNode6.TemperatureSensor.SignalConverter  "Energy Consumptions"  ETV
vector 234  ApplicationClusteringImplementations.TemperatureSensorNode6.TemperatureSensor.SignalConverter  "Current use over time"  ETV
vector 235  ApplicationClusteringImplementations.TemperatureSensorNode6.TemperatureSensor.Transducer  "Energy Consumptions"  ETV
vector 236  ApplicationClusteringImplementations.TemperatureSensorNode6.TemperatureSensor.Transducer  "Current use over time"  ETV
vector 237  ApplicationClusteringImplementations.TemperatureSensorNode6.Memory  "Energy Consumptions"  ETV
vector 238  ApplicationClusteringImplementations.TemperatureSensorNode6.Memory  "Current use over time"  ETV
vector 246  ApplicationClusteringImplementations.TemperatureSensorNode7.TemperatureSensor.SensingUnit  "Energy Consumptions"  ETV
vector 247  ApplicationClusteringImplementations.TemperatureSensorNode7.TemperatureSensor.SensingUnit  "Current use over time"  ETV
vector 248  ApplicationClusteringImplementations.TemperatureSensorNode7.TemperatureSensor.SignalConditioner  "Energy Consumptions"  ETV
vector 249  ApplicationClusteringImplementations.TemperatureSensorNode7.TemperatureSensor.SignalConditioner  "Current use over time"  ETV
vector 250  ApplicationClusteringImplementations.TemperatureSensorNode7.TemperatureSensor.SignalConverter  "Energy Consumptions"  ETV
vector 251  ApplicationClusteringImplementations.TemperatureSensorNode7.TemperatureSensor.SignalConverter  "Current use over time"  ETV
vector 252  ApplicationClusteringImplementations.TemperatureSensorNode7.TemperatureSensor.Transducer  "Energy Consumptions"  ETV
vector 253  ApplicationClusteringImplementations.TemperatureSensorNode7.TemperatureSensor.Transducer  "Current use over time"  ETV
vector 254  ApplicationClusteringImplementations.TemperatureSensorNode7.Memory  "Energy Consumptions"  ETV
vector 255  ApplicationClusteringImplementations.TemperatureSensorNode7.Memory  "Current use over time"  ETV
vector 263  ApplicationClusteringImplementations.TemperatureSensorNode8.TemperatureSensor.SensingUnit  "Energy Consumptions"  ETV
vector 264  ApplicationClusteringImplementations.TemperatureSensorNode8.TemperatureSensor.SensingUnit  "Current use over time"  ETV
vector 265  ApplicationClusteringImplementations.TemperatureSensorNode8.TemperatureSensor.SignalConditioner  "Energy Consumptions"  ETV
vector 266  ApplicationClusteringImplementations.TemperatureSensorNode8.TemperatureSensor.SignalConditioner  "Current use over time"  ETV
vector 267  ApplicationClusteringImplementations.TemperatureSensorNode8.TemperatureSensor.SignalConverter  "Energy Consumptions"  ETV
vector 268  ApplicationClusteringImplementations.TemperatureSensorNode8.TemperatureSensor.SignalConverter  "Current use over time"  ETV
vector 269  ApplicationClusteringImplementations.TemperatureSensorNode8.TemperatureSensor.Transducer  "Energy Consumptions"  ETV
vector 270  ApplicationClusteringImplementations.TemperatureSensorNode8.TemperatureSensor.Transducer  "Current use over time"  ETV
vector 271  ApplicationClusteringImplementations.TemperatureSensorNode8.Memory  "Energy Consumptions"  ETV
vector 272  ApplicationClusteringImplementations.TemperatureSensorNode8.Memory  "Current use over time"  ETV
vector 280  ApplicationClusteringImplementations.TemperatureSensorNode9.TemperatureSensor.SensingUnit  "Energy Consumptions"  ETV
vector 281  ApplicationClusteringImplementations.TemperatureSensorNode9.TemperatureSensor.SensingUnit  "Current use over time"  ETV
vector 282  ApplicationClusteringImplementations.TemperatureSensorNode9.TemperatureSensor.SignalConditioner  "Energy Consumptions"  ETV
vector 283  ApplicationClusteringImplementations.TemperatureSensorNode9.TemperatureSensor.SignalConditioner  "Current use over time"  ETV
vector 284  ApplicationClusteringImplementations.TemperatureSensorNode9.TemperatureSensor.SignalConverter  "Energy Consumptions"  ETV
vector 285  ApplicationClusteringImplementations.TemperatureSensorNode9.TemperatureSensor.SignalConverter  "Current use over time"  ETV
vector 286  ApplicationClusteringImplementations.TemperatureSensorNode9.TemperatureSensor.Transducer  "Energy Consumptions"  ETV
vector 287  ApplicationClusteringImplementations.TemperatureSensorNode9.TemperatureSensor.Transducer  "Current use over time"  ETV
vector 288  ApplicationClusteringImplementations.TemperatureSensorNode9.Memory  "Energy Consumptions"  ETV
vector 289  ApplicationClusteringImplementations.TemperatureSensorNode9.Memory  "Current use over time"  ETV
7	0	0	0
7	0	0	0
8	0	0	0
9	0	0	3
10	0	0	1
11	0	0	10800000
19	0	0	0
19	0	0	0
20	0	0	0
21	0	0	3
22	0	0	1
23	0	0	10800000
31	0	0	0
31	0	0	0
32	0	0	0
33	0	0	3
34	0	0	1
35	0	0	10800000
43	0	0	0
43	0	0	0
44	0	0	0
45	0	0	3
46	0	0	1
47	0	0	10800000
55	0	0	0
55	0	0	0
56	0	0	0
57	0	0	3
58	0	0	1
59	0	0	10800000
67	0	0	0
67	0	0	0
68	0	0	0
69	0	0	3
70	0	0	1
71	0	0	10800000
79	0	0	0
79	0	0	0
80	0	0	0
81	0	0	3
82	0	0	1
83	0	0	10800000
91	0	0	0
91	0	0	0
92	0	0	0
93	0	0	3
94	0	0	1
95	0	0	10800000
103	0	0	0
103	0	0	0
104	0	0	0
105	0	0	3
106	0	0	1
107	0	0	10800000
115	0	0	0
115	0	0	0
116	0	0	0
117	0	0	3
118	0	0	1
119	0	0	10800000
127	0	0	100
127	0	0	100
127	0	0	100
128	0	0	3
129	0	0	100
130	0	0	3
131	0	0	100
132	0	0	3
133	0	0	100
134	0	0	3
135	0	0	100
136	0	0	3
144	0	0	100
144	0	0	100
144	0	0	100
145	0	0	3
146	0	0	100
147	0	0	3
148	0	0	100
149	0	0	3
150	0	0	100
151	0	0	3
152	0	0	100
153	0	0	3
161	0	0	100
161	0	0	100
161	0	0	100
162	0	0	3
163	0	0	100
164	0	0	3
165	0	0	100
166	0	0	3
167	0	0	100
168	0	0	3
169	0	0	100
170	0	0	3
178	0	0	100
178	0	0	100
178	0	0	100
179	0	0	3
180	0	0	100
181	0	0	3
182	0	0	100
183	0	0	3
184	0	0	100
185	0	0	3
186	0	0	100
187	0	0	3
195	0	0	100
195	0	0	100
195	0	0	100
196	0	0	3
197	0	0	100
198	0	0	3
199	0	0	100
200	0	0	3
201	0	0	100
202	0	0	3
203	0	0	100
204	0	0	3
212	0	0	100
212	0	0	100
212	0	0	100
213	0	0	3
214	0	0	100
215	0	0	3
216	0	0	100
217	0	0	3
218	0	0	100
219	0	0	3
220	0	0	100
221	0	0	3
229	0	0	100
229	0	0	100
229	0	0	100
230	0	0	3
231	0	0	100
232	0	0	3
233	0	0	100
234	0	0	3
235	0	0	100
236	0	0	3
237	0	0	100
238	0	0	3
246	0	0	100
246	0	0	100
246	0	0	100
247	0	0	3
248	0	0	100
249	0	0	3
250	0	0	100
251	0	0	3
252	0	0	100
253	0	0	3
254	0	0	100
255	0	0	3
263	0	0	100
263	0	0	100
263	0	0	100
264	0	0	3
265	0	0	100
266	0	0	3
267	0	0	100
268	0	0	3
269	0	0	100
270	0	0	3
271	0	0	100
272	0	0	3
280	0	0	100
280	0	0	100
280	0	0	100
281	0	0	3
282	0	0	100
283	0	0	3
284	0	0	100
285	0	0	3
286	0	0	100
287	0	0	3
288	0	0	100
289	0	0	3
