version 2
run General-0-20151215-13:21:14-26914
attr configname General
attr datetime 20151215-13:21:14
attr experiment General
attr inifile szenario1.ini
attr iterationvars ""
attr iterationvars2 $repetition=0
attr measurement ""
attr network Szenario1
attr processid 26914
attr repetition 0
attr replication #0
attr resultdir results
attr runnumber 0
attr seedset 0

vector 7  Szenario1.Node0.Processor  "power mode"  ETV
vector 8  Szenario1.Node0.Processor  "Sensor Modules Status"  ETV
vector 9  Szenario1.Node0.Processor  Voltage  ETV
vector 10  Szenario1.Node0.Processor  residualRelative  ETV
vector 11  Szenario1.Node0.Processor  residualAbs  ETV
vector 19  Szenario1.Node1.Processor  "power mode"  ETV
vector 20  Szenario1.Node1.Processor  "Sensor Modules Status"  ETV
vector 21  Szenario1.Node1.Processor  Voltage  ETV
vector 22  Szenario1.Node1.Processor  residualRelative  ETV
vector 23  Szenario1.Node1.Processor  residualAbs  ETV
vector 31  Szenario1.Node2.Processor  "power mode"  ETV
vector 32  Szenario1.Node2.Processor  "Sensor Modules Status"  ETV
vector 33  Szenario1.Node2.Processor  Voltage  ETV
vector 34  Szenario1.Node2.Processor  residualRelative  ETV
vector 35  Szenario1.Node2.Processor  residualAbs  ETV
vector 43  Szenario1.Node3.Processor  "power mode"  ETV
vector 44  Szenario1.Node3.Processor  "Sensor Modules Status"  ETV
vector 45  Szenario1.Node3.Processor  Voltage  ETV
vector 46  Szenario1.Node3.Processor  residualRelative  ETV
vector 47  Szenario1.Node3.Processor  residualAbs  ETV
vector 55  Szenario1.Node4.Processor  "power mode"  ETV
vector 56  Szenario1.Node4.Processor  "Sensor Modules Status"  ETV
vector 57  Szenario1.Node4.Processor  Voltage  ETV
vector 58  Szenario1.Node4.Processor  residualRelative  ETV
vector 59  Szenario1.Node4.Processor  residualAbs  ETV
vector 67  Szenario1.Node5.Processor  "power mode"  ETV
vector 68  Szenario1.Node5.Processor  "Sensor Modules Status"  ETV
vector 69  Szenario1.Node5.Processor  Voltage  ETV
vector 70  Szenario1.Node5.Processor  residualRelative  ETV
vector 71  Szenario1.Node5.Processor  residualAbs  ETV
vector 79  Szenario1.Node6.Processor  "power mode"  ETV
vector 80  Szenario1.Node6.Processor  "Sensor Modules Status"  ETV
vector 81  Szenario1.Node6.Processor  Voltage  ETV
vector 82  Szenario1.Node6.Processor  residualRelative  ETV
vector 83  Szenario1.Node6.Processor  residualAbs  ETV
vector 91  Szenario1.Node7.Processor  "power mode"  ETV
vector 92  Szenario1.Node7.Processor  "Sensor Modules Status"  ETV
vector 93  Szenario1.Node7.Processor  Voltage  ETV
vector 94  Szenario1.Node7.Processor  residualRelative  ETV
vector 95  Szenario1.Node7.Processor  residualAbs  ETV
vector 103  Szenario1.Node8.Processor  "power mode"  ETV
vector 104  Szenario1.Node8.Processor  "Sensor Modules Status"  ETV
vector 105  Szenario1.Node8.Processor  Voltage  ETV
vector 106  Szenario1.Node8.Processor  residualRelative  ETV
vector 107  Szenario1.Node8.Processor  residualAbs  ETV
vector 115  Szenario1.Node9.Processor  "power mode"  ETV
vector 116  Szenario1.Node9.Processor  "Sensor Modules Status"  ETV
vector 117  Szenario1.Node9.Processor  Voltage  ETV
vector 118  Szenario1.Node9.Processor  residualRelative  ETV
vector 119  Szenario1.Node9.Processor  residualAbs  ETV
vector 127  Szenario1.Node10.Processor  "power mode"  ETV
vector 128  Szenario1.Node10.Processor  "Sensor Modules Status"  ETV
vector 129  Szenario1.Node10.Processor  Voltage  ETV
vector 130  Szenario1.Node10.Processor  residualRelative  ETV
vector 131  Szenario1.Node10.Processor  residualAbs  ETV
vector 139  Szenario1.Node11.Processor  "power mode"  ETV
vector 140  Szenario1.Node11.Processor  "Sensor Modules Status"  ETV
vector 141  Szenario1.Node11.Processor  Voltage  ETV
vector 142  Szenario1.Node11.Processor  residualRelative  ETV
vector 143  Szenario1.Node11.Processor  residualAbs  ETV
vector 151  Szenario1.Node12.Processor  "power mode"  ETV
vector 152  Szenario1.Node12.Processor  "Sensor Modules Status"  ETV
vector 153  Szenario1.Node12.Processor  Voltage  ETV
vector 154  Szenario1.Node12.Processor  residualRelative  ETV
vector 155  Szenario1.Node12.Processor  residualAbs  ETV
vector 163  Szenario1.Node13.Processor  "power mode"  ETV
vector 164  Szenario1.Node13.Processor  "Sensor Modules Status"  ETV
vector 165  Szenario1.Node13.Processor  Voltage  ETV
vector 166  Szenario1.Node13.Processor  residualRelative  ETV
vector 167  Szenario1.Node13.Processor  residualAbs  ETV
vector 168  Szenario1.Node0.TemperatureSensor.SensingUnit  "Energy Consumptions"  ETV
vector 169  Szenario1.Node0.TemperatureSensor.SensingUnit  "Current use over time"  ETV
vector 170  Szenario1.Node0.TemperatureSensor.SignalConditioner  "Energy Consumptions"  ETV
vector 171  Szenario1.Node0.TemperatureSensor.SignalConditioner  "Current use over time"  ETV
vector 172  Szenario1.Node0.TemperatureSensor.SignalConverter  "Energy Consumptions"  ETV
vector 173  Szenario1.Node0.TemperatureSensor.SignalConverter  "Current use over time"  ETV
vector 174  Szenario1.Node0.TemperatureSensor.Transducer  "Energy Consumptions"  ETV
vector 175  Szenario1.Node0.TemperatureSensor.Transducer  "Current use over time"  ETV
vector 176  Szenario1.Node0.PressureSensor.SensingUnit  "Energy Consumptions"  ETV
vector 177  Szenario1.Node0.PressureSensor.SensingUnit  "Current use over time"  ETV
vector 178  Szenario1.Node0.PressureSensor.SignalConditioner  "Energy Consumptions"  ETV
vector 179  Szenario1.Node0.PressureSensor.SignalConditioner  "Current use over time"  ETV
vector 180  Szenario1.Node0.PressureSensor.SignalConverter  "Energy Consumptions"  ETV
vector 181  Szenario1.Node0.PressureSensor.SignalConverter  "Current use over time"  ETV
vector 182  Szenario1.Node0.PressureSensor.Transducer  "Energy Consumptions"  ETV
vector 183  Szenario1.Node0.PressureSensor.Transducer  "Current use over time"  ETV
vector 184  Szenario1.Node0.LightSensor.SensingUnit  "Energy Consumptions"  ETV
vector 185  Szenario1.Node0.LightSensor.SensingUnit  "Current use over time"  ETV
vector 186  Szenario1.Node0.LightSensor.SignalConditioner  "Energy Consumptions"  ETV
vector 187  Szenario1.Node0.LightSensor.SignalConditioner  "Current use over time"  ETV
vector 188  Szenario1.Node0.LightSensor.SignalConverter  "Energy Consumptions"  ETV
vector 189  Szenario1.Node0.LightSensor.SignalConverter  "Current use over time"  ETV
vector 190  Szenario1.Node0.LightSensor.Transducer  "Energy Consumptions"  ETV
vector 191  Szenario1.Node0.LightSensor.Transducer  "Current use over time"  ETV
vector 192  Szenario1.Node0.Memory  "Energy Consumptions"  ETV
vector 193  Szenario1.Node0.Memory  "Current use over time"  ETV
vector 201  Szenario1.Node1.LightSensor.SensingUnit  "Energy Consumptions"  ETV
vector 202  Szenario1.Node1.LightSensor.SensingUnit  "Current use over time"  ETV
vector 203  Szenario1.Node1.LightSensor.SignalConditioner  "Energy Consumptions"  ETV
vector 204  Szenario1.Node1.LightSensor.SignalConditioner  "Current use over time"  ETV
vector 205  Szenario1.Node1.LightSensor.SignalConverter  "Energy Consumptions"  ETV
vector 206  Szenario1.Node1.LightSensor.SignalConverter  "Current use over time"  ETV
vector 207  Szenario1.Node1.LightSensor.Transducer  "Energy Consumptions"  ETV
vector 208  Szenario1.Node1.LightSensor.Transducer  "Current use over time"  ETV
vector 209  Szenario1.Node1.Memory  "Energy Consumptions"  ETV
vector 210  Szenario1.Node1.Memory  "Current use over time"  ETV
vector 218  Szenario1.Node2.TemperatureSensor.SensingUnit  "Energy Consumptions"  ETV
vector 219  Szenario1.Node2.TemperatureSensor.SensingUnit  "Current use over time"  ETV
vector 220  Szenario1.Node2.TemperatureSensor.SignalConditioner  "Energy Consumptions"  ETV
vector 221  Szenario1.Node2.TemperatureSensor.SignalConditioner  "Current use over time"  ETV
vector 222  Szenario1.Node2.TemperatureSensor.SignalConverter  "Energy Consumptions"  ETV
vector 223  Szenario1.Node2.TemperatureSensor.SignalConverter  "Current use over time"  ETV
vector 224  Szenario1.Node2.TemperatureSensor.Transducer  "Energy Consumptions"  ETV
vector 225  Szenario1.Node2.TemperatureSensor.Transducer  "Current use over time"  ETV
vector 226  Szenario1.Node2.HumiditySensor.SensingUnit  "Energy Consumptions"  ETV
vector 227  Szenario1.Node2.HumiditySensor.SensingUnit  "Current use over time"  ETV
vector 228  Szenario1.Node2.HumiditySensor.SignalConditioner  "Energy Consumptions"  ETV
vector 229  Szenario1.Node2.HumiditySensor.SignalConditioner  "Current use over time"  ETV
vector 230  Szenario1.Node2.HumiditySensor.SignalConverter  "Energy Consumptions"  ETV
vector 231  Szenario1.Node2.HumiditySensor.SignalConverter  "Current use over time"  ETV
vector 232  Szenario1.Node2.HumiditySensor.Transducer  "Energy Consumptions"  ETV
vector 233  Szenario1.Node2.HumiditySensor.Transducer  "Current use over time"  ETV
vector 234  Szenario1.Node2.Memory  "Energy Consumptions"  ETV
vector 235  Szenario1.Node2.Memory  "Current use over time"  ETV
vector 243  Szenario1.Node3.TemperatureSensor.SensingUnit  "Energy Consumptions"  ETV
vector 244  Szenario1.Node3.TemperatureSensor.SensingUnit  "Current use over time"  ETV
vector 245  Szenario1.Node3.TemperatureSensor.SignalConditioner  "Energy Consumptions"  ETV
vector 246  Szenario1.Node3.TemperatureSensor.SignalConditioner  "Current use over time"  ETV
vector 247  Szenario1.Node3.TemperatureSensor.SignalConverter  "Energy Consumptions"  ETV
vector 248  Szenario1.Node3.TemperatureSensor.SignalConverter  "Current use over time"  ETV
vector 249  Szenario1.Node3.TemperatureSensor.Transducer  "Energy Consumptions"  ETV
vector 250  Szenario1.Node3.TemperatureSensor.Transducer  "Current use over time"  ETV
vector 251  Szenario1.Node3.PressureSensor.SensingUnit  "Energy Consumptions"  ETV
vector 252  Szenario1.Node3.PressureSensor.SensingUnit  "Current use over time"  ETV
vector 253  Szenario1.Node3.PressureSensor.SignalConditioner  "Energy Consumptions"  ETV
vector 254  Szenario1.Node3.PressureSensor.SignalConditioner  "Current use over time"  ETV
vector 255  Szenario1.Node3.PressureSensor.SignalConverter  "Energy Consumptions"  ETV
vector 256  Szenario1.Node3.PressureSensor.SignalConverter  "Current use over time"  ETV
vector 257  Szenario1.Node3.PressureSensor.Transducer  "Energy Consumptions"  ETV
vector 258  Szenario1.Node3.PressureSensor.Transducer  "Current use over time"  ETV
vector 259  Szenario1.Node3.LightSensor.SensingUnit  "Energy Consumptions"  ETV
vector 260  Szenario1.Node3.LightSensor.SensingUnit  "Current use over time"  ETV
vector 261  Szenario1.Node3.LightSensor.SignalConditioner  "Energy Consumptions"  ETV
vector 262  Szenario1.Node3.LightSensor.SignalConditioner  "Current use over time"  ETV
vector 263  Szenario1.Node3.LightSensor.SignalConverter  "Energy Consumptions"  ETV
vector 264  Szenario1.Node3.LightSensor.SignalConverter  "Current use over time"  ETV
vector 265  Szenario1.Node3.LightSensor.Transducer  "Energy Consumptions"  ETV
vector 266  Szenario1.Node3.LightSensor.Transducer  "Current use over time"  ETV
vector 267  Szenario1.Node3.Memory  "Energy Consumptions"  ETV
vector 268  Szenario1.Node3.Memory  "Current use over time"  ETV
vector 276  Szenario1.Node4.HumiditySensor.SensingUnit  "Energy Consumptions"  ETV
vector 277  Szenario1.Node4.HumiditySensor.SensingUnit  "Current use over time"  ETV
vector 278  Szenario1.Node4.HumiditySensor.SignalConditioner  "Energy Consumptions"  ETV
vector 279  Szenario1.Node4.HumiditySensor.SignalConditioner  "Current use over time"  ETV
vector 280  Szenario1.Node4.HumiditySensor.SignalConverter  "Energy Consumptions"  ETV
vector 281  Szenario1.Node4.HumiditySensor.SignalConverter  "Current use over time"  ETV
vector 282  Szenario1.Node4.HumiditySensor.Transducer  "Energy Consumptions"  ETV
vector 283  Szenario1.Node4.HumiditySensor.Transducer  "Current use over time"  ETV
vector 284  Szenario1.Node4.Memory  "Energy Consumptions"  ETV
vector 285  Szenario1.Node4.Memory  "Current use over time"  ETV
vector 293  Szenario1.Node5.TemperatureSensor.SensingUnit  "Energy Consumptions"  ETV
vector 294  Szenario1.Node5.TemperatureSensor.SensingUnit  "Current use over time"  ETV
vector 295  Szenario1.Node5.TemperatureSensor.SignalConditioner  "Energy Consumptions"  ETV
vector 296  Szenario1.Node5.TemperatureSensor.SignalConditioner  "Current use over time"  ETV
vector 297  Szenario1.Node5.TemperatureSensor.SignalConverter  "Energy Consumptions"  ETV
vector 298  Szenario1.Node5.TemperatureSensor.SignalConverter  "Current use over time"  ETV
vector 299  Szenario1.Node5.TemperatureSensor.Transducer  "Energy Consumptions"  ETV
vector 300  Szenario1.Node5.TemperatureSensor.Transducer  "Current use over time"  ETV
vector 301  Szenario1.Node5.HumiditySensor.SensingUnit  "Energy Consumptions"  ETV
vector 302  Szenario1.Node5.HumiditySensor.SensingUnit  "Current use over time"  ETV
vector 303  Szenario1.Node5.HumiditySensor.SignalConditioner  "Energy Consumptions"  ETV
vector 304  Szenario1.Node5.HumiditySensor.SignalConditioner  "Current use over time"  ETV
vector 305  Szenario1.Node5.HumiditySensor.SignalConverter  "Energy Consumptions"  ETV
vector 306  Szenario1.Node5.HumiditySensor.SignalConverter  "Current use over time"  ETV
vector 307  Szenario1.Node5.HumiditySensor.Transducer  "Energy Consumptions"  ETV
vector 308  Szenario1.Node5.HumiditySensor.Transducer  "Current use over time"  ETV
vector 309  Szenario1.Node5.PressureSensor.SensingUnit  "Energy Consumptions"  ETV
vector 310  Szenario1.Node5.PressureSensor.SensingUnit  "Current use over time"  ETV
vector 311  Szenario1.Node5.PressureSensor.SignalConditioner  "Energy Consumptions"  ETV
vector 312  Szenario1.Node5.PressureSensor.SignalConditioner  "Current use over time"  ETV
vector 313  Szenario1.Node5.PressureSensor.SignalConverter  "Energy Consumptions"  ETV
vector 314  Szenario1.Node5.PressureSensor.SignalConverter  "Current use over time"  ETV
vector 315  Szenario1.Node5.PressureSensor.Transducer  "Energy Consumptions"  ETV
vector 316  Szenario1.Node5.PressureSensor.Transducer  "Current use over time"  ETV
vector 317  Szenario1.Node5.LightSensor.SensingUnit  "Energy Consumptions"  ETV
vector 318  Szenario1.Node5.LightSensor.SensingUnit  "Current use over time"  ETV
vector 319  Szenario1.Node5.LightSensor.SignalConditioner  "Energy Consumptions"  ETV
vector 320  Szenario1.Node5.LightSensor.SignalConditioner  "Current use over time"  ETV
vector 321  Szenario1.Node5.LightSensor.SignalConverter  "Energy Consumptions"  ETV
vector 322  Szenario1.Node5.LightSensor.SignalConverter  "Current use over time"  ETV
vector 323  Szenario1.Node5.LightSensor.Transducer  "Energy Consumptions"  ETV
vector 324  Szenario1.Node5.LightSensor.Transducer  "Current use over time"  ETV
vector 325  Szenario1.Node5.Memory  "Energy Consumptions"  ETV
vector 326  Szenario1.Node5.Memory  "Current use over time"  ETV
vector 334  Szenario1.Node6.LightSensor.SensingUnit  "Energy Consumptions"  ETV
vector 335  Szenario1.Node6.LightSensor.SensingUnit  "Current use over time"  ETV
vector 336  Szenario1.Node6.LightSensor.SignalConditioner  "Energy Consumptions"  ETV
vector 337  Szenario1.Node6.LightSensor.SignalConditioner  "Current use over time"  ETV
vector 338  Szenario1.Node6.LightSensor.SignalConverter  "Energy Consumptions"  ETV
vector 339  Szenario1.Node6.LightSensor.SignalConverter  "Current use over time"  ETV
vector 340  Szenario1.Node6.LightSensor.Transducer  "Energy Consumptions"  ETV
vector 341  Szenario1.Node6.LightSensor.Transducer  "Current use over time"  ETV
vector 342  Szenario1.Node6.Memory  "Energy Consumptions"  ETV
vector 343  Szenario1.Node6.Memory  "Current use over time"  ETV
vector 351  Szenario1.Node7.TemperatureSensor.SensingUnit  "Energy Consumptions"  ETV
vector 352  Szenario1.Node7.TemperatureSensor.SensingUnit  "Current use over time"  ETV
vector 353  Szenario1.Node7.TemperatureSensor.SignalConditioner  "Energy Consumptions"  ETV
vector 354  Szenario1.Node7.TemperatureSensor.SignalConditioner  "Current use over time"  ETV
vector 355  Szenario1.Node7.TemperatureSensor.SignalConverter  "Energy Consumptions"  ETV
vector 356  Szenario1.Node7.TemperatureSensor.SignalConverter  "Current use over time"  ETV
vector 357  Szenario1.Node7.TemperatureSensor.Transducer  "Energy Consumptions"  ETV
vector 358  Szenario1.Node7.TemperatureSensor.Transducer  "Current use over time"  ETV
vector 359  Szenario1.Node7.HumiditySensor.SensingUnit  "Energy Consumptions"  ETV
vector 360  Szenario1.Node7.HumiditySensor.SensingUnit  "Current use over time"  ETV
vector 361  Szenario1.Node7.HumiditySensor.SignalConditioner  "Energy Consumptions"  ETV
vector 362  Szenario1.Node7.HumiditySensor.SignalConditioner  "Current use over time"  ETV
vector 363  Szenario1.Node7.HumiditySensor.SignalConverter  "Energy Consumptions"  ETV
vector 364  Szenario1.Node7.HumiditySensor.SignalConverter  "Current use over time"  ETV
vector 365  Szenario1.Node7.HumiditySensor.Transducer  "Energy Consumptions"  ETV
vector 366  Szenario1.Node7.HumiditySensor.Transducer  "Current use over time"  ETV
vector 367  Szenario1.Node7.PressureSensor.SensingUnit  "Energy Consumptions"  ETV
vector 368  Szenario1.Node7.PressureSensor.SensingUnit  "Current use over time"  ETV
vector 369  Szenario1.Node7.PressureSensor.SignalConditioner  "Energy Consumptions"  ETV
vector 370  Szenario1.Node7.PressureSensor.SignalConditioner  "Current use over time"  ETV
vector 371  Szenario1.Node7.PressureSensor.SignalConverter  "Energy Consumptions"  ETV
vector 372  Szenario1.Node7.PressureSensor.SignalConverter  "Current use over time"  ETV
vector 373  Szenario1.Node7.PressureSensor.Transducer  "Energy Consumptions"  ETV
vector 374  Szenario1.Node7.PressureSensor.Transducer  "Current use over time"  ETV
vector 375  Szenario1.Node7.Memory  "Energy Consumptions"  ETV
vector 376  Szenario1.Node7.Memory  "Current use over time"  ETV
vector 384  Szenario1.Node8.LightSensor.SensingUnit  "Energy Consumptions"  ETV
vector 385  Szenario1.Node8.LightSensor.SensingUnit  "Current use over time"  ETV
vector 386  Szenario1.Node8.LightSensor.SignalConditioner  "Energy Consumptions"  ETV
vector 387  Szenario1.Node8.LightSensor.SignalConditioner  "Current use over time"  ETV
vector 388  Szenario1.Node8.LightSensor.SignalConverter  "Energy Consumptions"  ETV
vector 389  Szenario1.Node8.LightSensor.SignalConverter  "Current use over time"  ETV
vector 390  Szenario1.Node8.LightSensor.Transducer  "Energy Consumptions"  ETV
vector 391  Szenario1.Node8.LightSensor.Transducer  "Current use over time"  ETV
vector 392  Szenario1.Node8.Memory  "Energy Consumptions"  ETV
vector 393  Szenario1.Node8.Memory  "Current use over time"  ETV
vector 401  Szenario1.Node9.TemperatureSensor.SensingUnit  "Energy Consumptions"  ETV
vector 402  Szenario1.Node9.TemperatureSensor.SensingUnit  "Current use over time"  ETV
vector 403  Szenario1.Node9.TemperatureSensor.SignalConditioner  "Energy Consumptions"  ETV
vector 404  Szenario1.Node9.TemperatureSensor.SignalConditioner  "Current use over time"  ETV
vector 405  Szenario1.Node9.TemperatureSensor.SignalConverter  "Energy Consumptions"  ETV
vector 406  Szenario1.Node9.TemperatureSensor.SignalConverter  "Current use over time"  ETV
vector 407  Szenario1.Node9.TemperatureSensor.Transducer  "Energy Consumptions"  ETV
vector 408  Szenario1.Node9.TemperatureSensor.Transducer  "Current use over time"  ETV
vector 409  Szenario1.Node9.HumiditySensor.SensingUnit  "Energy Consumptions"  ETV
vector 410  Szenario1.Node9.HumiditySensor.SensingUnit  "Current use over time"  ETV
vector 411  Szenario1.Node9.HumiditySensor.SignalConditioner  "Energy Consumptions"  ETV
vector 412  Szenario1.Node9.HumiditySensor.SignalConditioner  "Current use over time"  ETV
vector 413  Szenario1.Node9.HumiditySensor.SignalConverter  "Energy Consumptions"  ETV
vector 414  Szenario1.Node9.HumiditySensor.SignalConverter  "Current use over time"  ETV
vector 415  Szenario1.Node9.HumiditySensor.Transducer  "Energy Consumptions"  ETV
vector 416  Szenario1.Node9.HumiditySensor.Transducer  "Current use over time"  ETV
vector 417  Szenario1.Node9.LightSensor.SensingUnit  "Energy Consumptions"  ETV
vector 418  Szenario1.Node9.LightSensor.SensingUnit  "Current use over time"  ETV
vector 419  Szenario1.Node9.LightSensor.SignalConditioner  "Energy Consumptions"  ETV
vector 420  Szenario1.Node9.LightSensor.SignalConditioner  "Current use over time"  ETV
vector 421  Szenario1.Node9.LightSensor.SignalConverter  "Energy Consumptions"  ETV
vector 422  Szenario1.Node9.LightSensor.SignalConverter  "Current use over time"  ETV
vector 423  Szenario1.Node9.LightSensor.Transducer  "Energy Consumptions"  ETV
vector 424  Szenario1.Node9.LightSensor.Transducer  "Current use over time"  ETV
vector 425  Szenario1.Node9.Memory  "Energy Consumptions"  ETV
vector 426  Szenario1.Node9.Memory  "Current use over time"  ETV
vector 434  Szenario1.Node10.LightSensor.SensingUnit  "Energy Consumptions"  ETV
vector 435  Szenario1.Node10.LightSensor.SensingUnit  "Current use over time"  ETV
vector 436  Szenario1.Node10.LightSensor.SignalConditioner  "Energy Consumptions"  ETV
vector 437  Szenario1.Node10.LightSensor.SignalConditioner  "Current use over time"  ETV
vector 438  Szenario1.Node10.LightSensor.SignalConverter  "Energy Consumptions"  ETV
vector 439  Szenario1.Node10.LightSensor.SignalConverter  "Current use over time"  ETV
vector 440  Szenario1.Node10.LightSensor.Transducer  "Energy Consumptions"  ETV
vector 441  Szenario1.Node10.LightSensor.Transducer  "Current use over time"  ETV
vector 442  Szenario1.Node10.Memory  "Energy Consumptions"  ETV
vector 443  Szenario1.Node10.Memory  "Current use over time"  ETV
vector 451  Szenario1.Node11.TemperatureSensor.SensingUnit  "Energy Consumptions"  ETV
vector 452  Szenario1.Node11.TemperatureSensor.SensingUnit  "Current use over time"  ETV
vector 453  Szenario1.Node11.TemperatureSensor.SignalConditioner  "Energy Consumptions"  ETV
vector 454  Szenario1.Node11.TemperatureSensor.SignalConditioner  "Current use over time"  ETV
vector 455  Szenario1.Node11.TemperatureSensor.SignalConverter  "Energy Consumptions"  ETV
vector 456  Szenario1.Node11.TemperatureSensor.SignalConverter  "Current use over time"  ETV
vector 457  Szenario1.Node11.TemperatureSensor.Transducer  "Energy Consumptions"  ETV
vector 458  Szenario1.Node11.TemperatureSensor.Transducer  "Current use over time"  ETV
vector 459  Szenario1.Node11.HumiditySensor.SensingUnit  "Energy Consumptions"  ETV
vector 460  Szenario1.Node11.HumiditySensor.SensingUnit  "Current use over time"  ETV
vector 461  Szenario1.Node11.HumiditySensor.SignalConditioner  "Energy Consumptions"  ETV
vector 462  Szenario1.Node11.HumiditySensor.SignalConditioner  "Current use over time"  ETV
vector 463  Szenario1.Node11.HumiditySensor.SignalConverter  "Energy Consumptions"  ETV
vector 464  Szenario1.Node11.HumiditySensor.SignalConverter  "Current use over time"  ETV
vector 465  Szenario1.Node11.HumiditySensor.Transducer  "Energy Consumptions"  ETV
vector 466  Szenario1.Node11.HumiditySensor.Transducer  "Current use over time"  ETV
vector 467  Szenario1.Node11.PressureSensor.SensingUnit  "Energy Consumptions"  ETV
vector 468  Szenario1.Node11.PressureSensor.SensingUnit  "Current use over time"  ETV
vector 469  Szenario1.Node11.PressureSensor.SignalConditioner  "Energy Consumptions"  ETV
vector 470  Szenario1.Node11.PressureSensor.SignalConditioner  "Current use over time"  ETV
vector 471  Szenario1.Node11.PressureSensor.SignalConverter  "Energy Consumptions"  ETV
vector 472  Szenario1.Node11.PressureSensor.SignalConverter  "Current use over time"  ETV
vector 473  Szenario1.Node11.PressureSensor.Transducer  "Energy Consumptions"  ETV
vector 474  Szenario1.Node11.PressureSensor.Transducer  "Current use over time"  ETV
vector 475  Szenario1.Node11.LightSensor.SensingUnit  "Energy Consumptions"  ETV
vector 476  Szenario1.Node11.LightSensor.SensingUnit  "Current use over time"  ETV
vector 477  Szenario1.Node11.LightSensor.SignalConditioner  "Energy Consumptions"  ETV
vector 478  Szenario1.Node11.LightSensor.SignalConditioner  "Current use over time"  ETV
vector 479  Szenario1.Node11.LightSensor.SignalConverter  "Energy Consumptions"  ETV
vector 480  Szenario1.Node11.LightSensor.SignalConverter  "Current use over time"  ETV
vector 481  Szenario1.Node11.LightSensor.Transducer  "Energy Consumptions"  ETV
vector 482  Szenario1.Node11.LightSensor.Transducer  "Current use over time"  ETV
vector 483  Szenario1.Node11.Memory  "Energy Consumptions"  ETV
vector 484  Szenario1.Node11.Memory  "Current use over time"  ETV
vector 492  Szenario1.Node12.PressureSensor.SensingUnit  "Energy Consumptions"  ETV
vector 493  Szenario1.Node12.PressureSensor.SensingUnit  "Current use over time"  ETV
vector 494  Szenario1.Node12.PressureSensor.SignalConditioner  "Energy Consumptions"  ETV
vector 495  Szenario1.Node12.PressureSensor.SignalConditioner  "Current use over time"  ETV
vector 496  Szenario1.Node12.PressureSensor.SignalConverter  "Energy Consumptions"  ETV
vector 497  Szenario1.Node12.PressureSensor.SignalConverter  "Current use over time"  ETV
vector 498  Szenario1.Node12.PressureSensor.Transducer  "Energy Consumptions"  ETV
vector 499  Szenario1.Node12.PressureSensor.Transducer  "Current use over time"  ETV
vector 500  Szenario1.Node12.Memory  "Energy Consumptions"  ETV
vector 501  Szenario1.Node12.Memory  "Current use over time"  ETV
vector 509  Szenario1.Node13.TemperatureSensor.SensingUnit  "Energy Consumptions"  ETV
vector 510  Szenario1.Node13.TemperatureSensor.SensingUnit  "Current use over time"  ETV
vector 511  Szenario1.Node13.TemperatureSensor.SignalConditioner  "Energy Consumptions"  ETV
vector 512  Szenario1.Node13.TemperatureSensor.SignalConditioner  "Current use over time"  ETV
vector 513  Szenario1.Node13.TemperatureSensor.SignalConverter  "Energy Consumptions"  ETV
vector 514  Szenario1.Node13.TemperatureSensor.SignalConverter  "Current use over time"  ETV
vector 515  Szenario1.Node13.TemperatureSensor.Transducer  "Energy Consumptions"  ETV
vector 516  Szenario1.Node13.TemperatureSensor.Transducer  "Current use over time"  ETV
vector 517  Szenario1.Node13.HumiditySensor.SensingUnit  "Energy Consumptions"  ETV
vector 518  Szenario1.Node13.HumiditySensor.SensingUnit  "Current use over time"  ETV
vector 519  Szenario1.Node13.HumiditySensor.SignalConditioner  "Energy Consumptions"  ETV
vector 520  Szenario1.Node13.HumiditySensor.SignalConditioner  "Current use over time"  ETV
vector 521  Szenario1.Node13.HumiditySensor.SignalConverter  "Energy Consumptions"  ETV
vector 522  Szenario1.Node13.HumiditySensor.SignalConverter  "Current use over time"  ETV
vector 523  Szenario1.Node13.HumiditySensor.Transducer  "Energy Consumptions"  ETV
vector 524  Szenario1.Node13.HumiditySensor.Transducer  "Current use over time"  ETV
vector 525  Szenario1.Node13.LightSensor.SensingUnit  "Energy Consumptions"  ETV
vector 526  Szenario1.Node13.LightSensor.SensingUnit  "Current use over time"  ETV
vector 527  Szenario1.Node13.LightSensor.SignalConditioner  "Energy Consumptions"  ETV
vector 528  Szenario1.Node13.LightSensor.SignalConditioner  "Current use over time"  ETV
vector 529  Szenario1.Node13.LightSensor.SignalConverter  "Energy Consumptions"  ETV
vector 530  Szenario1.Node13.LightSensor.SignalConverter  "Current use over time"  ETV
vector 531  Szenario1.Node13.LightSensor.Transducer  "Energy Consumptions"  ETV
vector 532  Szenario1.Node13.LightSensor.Transducer  "Current use over time"  ETV
vector 533  Szenario1.Node13.Memory  "Energy Consumptions"  ETV
vector 534  Szenario1.Node13.Memory  "Current use over time"  ETV
7	0	0	0
7	0	0	1
7	157	1	2
7	171	2	0
8	0	0	0
8	95	0	0
8	96	0	0
8	97	0	0
8	185	10	1
8	323	10	0
8	324	10	0
8	325	10	0
8	385	20	1
8	523	20	0
8	524	20	0
8	525	20	0
8	585	30	1
8	723	30	0
8	724	30	0
8	725	30	0
9	0	0	3
9	95	0	3
9	95	0	3
9	96	0	3
9	96	0	3
9	97	0	3
9	97	0	3
9	157	1	3
9	157	1	3
9	171	2	3
9	171	2	3
9	185	10	3
9	185	10	3
9	323	10	3
9	323	10	3
9	324	10	3
9	324	10	3
9	325	10	3
9	325	10	3
9	385	20	3
9	385	20	3
9	523	20	3
9	523	20	3
9	524	20	3
9	524	20	3
9	525	20	3
9	525	20	3
9	585	30	3
9	585	30	3
9	723	30	3
9	723	30	3
9	724	30	3
9	724	30	3
9	725	30	3
9	725	30	3
10	0	0	1
10	95	0	0.99861111111111
10	95	0	0.99847222222222
10	96	0	0.99847222222222
10	96	0	0.99833333333333
10	97	0	0.99833333333333
10	97	0	0.99819444444444
10	157	1	0.99774755555556
10	157	1	0.99751607407407
10	171	2	0.99739974074074
10	171	2	0.99721455555556
10	185	10	0.99721455555556
10	185	10	0.9938987037037
10	323	10	0.99223203703704
10	323	10	0.99204685185185
10	324	10	0.99204685185185
10	324	10	0.99186166666667
10	325	10	0.99186166666667
10	325	10	0.99167648148148
10	385	20	0.9913987037037
10	385	20	0.98730018518519
10	523	20	0.98563351851852
10	523	20	0.98544833333333
10	524	20	0.98544833333333
10	524	20	0.98526314814815
10	525	20	0.98526314814815
10	525	20	0.98507796296296
10	585	30	0.98480018518519
10	585	30	0.98070166666667
10	723	30	0.979035
10	723	30	0.97884981481481
10	724	30	0.97884981481481
10	724	30	0.97866462962963
10	725	30	0.97866462962963
10	725	30	0.97847944444444
11	0	0	10800000
11	95	0	10785000
11	95	0	10783500
11	96	0	10783500
11	96	0	10782000
11	97	0	10782000
11	97	0	10780500
11	157	1	10775673.6
11	157	1	10773173.6
11	171	2	10771917.2
11	171	2	10769917.2
11	185	10	10769917.2
11	185	10	10734106
11	323	10	10716106
11	323	10	10714106
11	324	10	10714106
11	324	10	10712106
11	325	10	10712106
11	325	10	10710106
11	385	20	10707106
11	385	20	10662842
11	523	20	10644842
11	523	20	10642842
11	524	20	10642842
11	524	20	10640842
11	525	20	10640842
11	525	20	10638842
11	585	30	10635842
11	585	30	10591578
11	723	30	10573578
11	723	30	10571578
11	724	30	10571578
11	724	30	10569578
11	725	30	10569578
11	725	30	10567578
19	0	0	0
19	0	0	1
19	158	1	2
19	172	2	0
20	0	0	0
20	98	0	0
20	186	10	1
20	326	10	0
20	386	20	1
20	526	20	0
20	586	30	1
20	726	30	0
21	0	0	3
21	98	0	3
21	98	0	3
21	158	1	3
21	158	1	3
21	172	2	3