file 67189 1450101335                                           
version 2
run General-0-20151214-14:55:17-25824
attr configname General
attr datetime 20151214-14:55:17
attr experiment General
attr inifile omnetpp.ini
attr iterationvars ""
attr iterationvars2 $repetition=0
attr measurement ""
attr network ApplicationClusteringImplementations
attr processid 25824
attr repetition 0
attr replication #0
attr resultdir results
attr runnumber 0
attr seedset 0

vector 7  ApplicationClusteringImplementations.Node0.Processor  "power mode"  ETV
vector 8  ApplicationClusteringImplementations.Node0.Processor  "Sensor Modules Status"  ETV
vector 9  ApplicationClusteringImplementations.Node0.Processor  Voltage  ETV
vector 10  ApplicationClusteringImplementations.Node0.Processor  residualRelative  ETV
vector 11  ApplicationClusteringImplementations.Node0.Processor  residualAbs  ETV
vector 19  ApplicationClusteringImplementations.Node1.Processor  "power mode"  ETV
vector 20  ApplicationClusteringImplementations.Node1.Processor  "Sensor Modules Status"  ETV
vector 21  ApplicationClusteringImplementations.Node1.Processor  Voltage  ETV
vector 22  ApplicationClusteringImplementations.Node1.Processor  residualRelative  ETV
vector 23  ApplicationClusteringImplementations.Node1.Processor  residualAbs  ETV
vector 31  ApplicationClusteringImplementations.Node2.Processor  "power mode"  ETV
vector 32  ApplicationClusteringImplementations.Node2.Processor  "Sensor Modules Status"  ETV
vector 33  ApplicationClusteringImplementations.Node2.Processor  Voltage  ETV
vector 34  ApplicationClusteringImplementations.Node2.Processor  residualRelative  ETV
vector 35  ApplicationClusteringImplementations.Node2.Processor  residualAbs  ETV
vector 43  ApplicationClusteringImplementations.Node3.Processor  "power mode"  ETV
vector 44  ApplicationClusteringImplementations.Node3.Processor  "Sensor Modules Status"  ETV
vector 45  ApplicationClusteringImplementations.Node3.Processor  Voltage  ETV
vector 46  ApplicationClusteringImplementations.Node3.Processor  residualRelative  ETV
vector 47  ApplicationClusteringImplementations.Node3.Processor  residualAbs  ETV
vector 55  ApplicationClusteringImplementations.Node4.Processor  "power mode"  ETV
vector 56  ApplicationClusteringImplementations.Node4.Processor  "Sensor Modules Status"  ETV
vector 57  ApplicationClusteringImplementations.Node4.Processor  Voltage  ETV
vector 58  ApplicationClusteringImplementations.Node4.Processor  residualRelative  ETV
vector 59  ApplicationClusteringImplementations.Node4.Processor  residualAbs  ETV
vector 67  ApplicationClusteringImplementations.Node5.Processor  "power mode"  ETV
vector 68  ApplicationClusteringImplementations.Node5.Processor  "Sensor Modules Status"  ETV
vector 69  ApplicationClusteringImplementations.Node5.Processor  Voltage  ETV
vector 70  ApplicationClusteringImplementations.Node5.Processor  residualRelative  ETV
vector 71  ApplicationClusteringImplementations.Node5.Processor  residualAbs  ETV
vector 79  ApplicationClusteringImplementations.Node6.Processor  "power mode"  ETV
vector 80  ApplicationClusteringImplementations.Node6.Processor  "Sensor Modules Status"  ETV
vector 81  ApplicationClusteringImplementations.Node6.Processor  Voltage  ETV
vector 82  ApplicationClusteringImplementations.Node6.Processor  residualRelative  ETV
vector 83  ApplicationClusteringImplementations.Node6.Processor  residualAbs  ETV
vector 91  ApplicationClusteringImplementations.Node7.Processor  "power mode"  ETV
vector 92  ApplicationClusteringImplementations.Node7.Processor  "Sensor Modules Status"  ETV
vector 93  ApplicationClusteringImplementations.Node7.Processor  Voltage  ETV
vector 94  ApplicationClusteringImplementations.Node7.Processor  residualRelative  ETV
vector 95  ApplicationClusteringImplementations.Node7.Processor  residualAbs  ETV
vector 103  ApplicationClusteringImplementations.Node8.Processor  "power mode"  ETV
vector 104  ApplicationClusteringImplementations.Node8.Processor  "Sensor Modules Status"  ETV
vector 105  ApplicationClusteringImplementations.Node8.Processor  Voltage  ETV
vector 106  ApplicationClusteringImplementations.Node8.Processor  residualRelative  ETV
vector 107  ApplicationClusteringImplementations.Node8.Processor  residualAbs  ETV
vector 115  ApplicationClusteringImplementations.Node9.Processor  "power mode"  ETV
vector 116  ApplicationClusteringImplementations.Node9.Processor  "Sensor Modules Status"  ETV
vector 117  ApplicationClusteringImplementations.Node9.Processor  Voltage  ETV
vector 118  ApplicationClusteringImplementations.Node9.Processor  residualRelative  ETV
vector 119  ApplicationClusteringImplementations.Node9.Processor  residualAbs  ETV
vector 127  ApplicationClusteringImplementations.Node10.Processor  "power mode"  ETV
vector 128  ApplicationClusteringImplementations.Node10.Processor  "Sensor Modules Status"  ETV
vector 129  ApplicationClusteringImplementations.Node10.Processor  Voltage  ETV
vector 130  ApplicationClusteringImplementations.Node10.Processor  residualRelative  ETV
vector 131  ApplicationClusteringImplementations.Node10.Processor  residualAbs  ETV
vector 139  ApplicationClusteringImplementations.Node11.Processor  "power mode"  ETV
vector 140  ApplicationClusteringImplementations.Node11.Processor  "Sensor Modules Status"  ETV
vector 141  ApplicationClusteringImplementations.Node11.Processor  Voltage  ETV
vector 142  ApplicationClusteringImplementations.Node11.Processor  residualRelative  ETV
vector 143  ApplicationClusteringImplementations.Node11.Processor  residualAbs  ETV
vector 151  ApplicationClusteringImplementations.Node12.Processor  "power mode"  ETV
vector 152  ApplicationClusteringImplementations.Node12.Processor  "Sensor Modules Status"  ETV
vector 153  ApplicationClusteringImplementations.Node12.Processor  Voltage  ETV
vector 154  ApplicationClusteringImplementations.Node12.Processor  residualRelative  ETV
vector 155  ApplicationClusteringImplementations.Node12.Processor  residualAbs  ETV
vector 163  ApplicationClusteringImplementations.Node13.Processor  "power mode"  ETV
vector 164  ApplicationClusteringImplementations.Node13.Processor  "Sensor Modules Status"  ETV
vector 165  ApplicationClusteringImplementations.Node13.Processor  Voltage  ETV
vector 166  ApplicationClusteringImplementations.Node13.Processor  residualRelative  ETV
vector 167  ApplicationClusteringImplementations.Node13.Processor  residualAbs  ETV
vector 168  ApplicationClusteringImplementations.Node0.TemperatureSensor.SensingUnit  "Energy Consumptions"  ETV
vector 169  ApplicationClusteringImplementations.Node0.TemperatureSensor.SensingUnit  "Current use over time"  ETV
vector 170  ApplicationClusteringImplementations.Node0.TemperatureSensor.SignalConditioner  "Energy Consumptions"  ETV
vector 171  ApplicationClusteringImplementations.Node0.TemperatureSensor.SignalConditioner  "Current use over time"  ETV
vector 172  ApplicationClusteringImplementations.Node0.TemperatureSensor.SignalConverter  "Energy Consumptions"  ETV
vector 173  ApplicationClusteringImplementations.Node0.TemperatureSensor.SignalConverter  "Current use over time"  ETV
vector 174  ApplicationClusteringImplementations.Node0.TemperatureSensor.Transducer  "Energy Consumptions"  ETV
vector 175  ApplicationClusteringImplementations.Node0.TemperatureSensor.Transducer  "Current use over time"  ETV
vector 176  ApplicationClusteringImplementations.Node0.PressureSensor.SensingUnit  "Energy Consumptions"  ETV
vector 177  ApplicationClusteringImplementations.Node0.PressureSensor.SensingUnit  "Current use over time"  ETV
vector 178  ApplicationClusteringImplementations.Node0.PressureSensor.SignalConditioner  "Energy Consumptions"  ETV
vector 179  ApplicationClusteringImplementations.Node0.PressureSensor.SignalConditioner  "Current use over time"  ETV
vector 180  ApplicationClusteringImplementations.Node0.PressureSensor.SignalConverter  "Energy Consumptions"  ETV
vector 181  ApplicationClusteringImplementations.Node0.PressureSensor.SignalConverter  "Current use over time"  ETV
vector 182  ApplicationClusteringImplementations.Node0.PressureSensor.Transducer  "Energy Consumptions"  ETV
vector 183  ApplicationClusteringImplementations.Node0.PressureSensor.Transducer  "Current use over time"  ETV
vector 184  ApplicationClusteringImplementations.Node0.LightSensor.SensingUnit  "Energy Consumptions"  ETV
vector 185  ApplicationClusteringImplementations.Node0.LightSensor.SensingUnit  "Current use over time"  ETV
vector 186  ApplicationClusteringImplementations.Node0.LightSensor.SignalConditioner  "Energy Consumptions"  ETV
vector 187  ApplicationClusteringImplementations.Node0.LightSensor.SignalConditioner  "Current use over time"  ETV
vector 188  ApplicationClusteringImplementations.Node0.LightSensor.SignalConverter  "Energy Consumptions"  ETV
vector 189  ApplicationClusteringImplementations.Node0.LightSensor.SignalConverter  "Current use over time"  ETV
vector 190  ApplicationClusteringImplementations.Node0.LightSensor.Transducer  "Energy Consumptions"  ETV
vector 191  ApplicationClusteringImplementations.Node0.LightSensor.Transducer  "Current use over time"  ETV
vector 192  ApplicationClusteringImplementations.Node0.Memory  "Energy Consumptions"  ETV
vector 193  ApplicationClusteringImplementations.Node0.Memory  "Current use over time"  ETV
vector 201  ApplicationClusteringImplementations.Node1.LightSensor.SensingUnit  "Energy Consumptions"  ETV
vector 202  ApplicationClusteringImplementations.Node1.LightSensor.SensingUnit  "Current use over time"  ETV
vector 203  ApplicationClusteringImplementations.Node1.LightSensor.SignalConditioner  "Energy Consumptions"  ETV
vector 204  ApplicationClusteringImplementations.Node1.LightSensor.SignalConditioner  "Current use over time"  ETV
vector 205  ApplicationClusteringImplementations.Node1.LightSensor.SignalConverter  "Energy Consumptions"  ETV
vector 206  ApplicationClusteringImplementations.Node1.LightSensor.SignalConverter  "Current use over time"  ETV
vector 207  ApplicationClusteringImplementations.Node1.LightSensor.Transducer  "Energy Consumptions"  ETV
vector 208  ApplicationClusteringImplementations.Node1.LightSensor.Transducer  "Current use over time"  ETV
vector 209  ApplicationClusteringImplementations.Node1.Memory  "Energy Consumptions"  ETV
vector 210  ApplicationClusteringImplementations.Node1.Memory  "Current use over time"  ETV
vector 218  ApplicationClusteringImplementations.Node2.TemperatureSensor.SensingUnit  "Energy Consumptions"  ETV
vector 219  ApplicationClusteringImplementations.Node2.TemperatureSensor.SensingUnit  "Current use over time"  ETV
vector 220  ApplicationClusteringImplementations.Node2.TemperatureSensor.SignalConditioner  "Energy Consumptions"  ETV
vector 221  ApplicationClusteringImplementations.Node2.TemperatureSensor.SignalConditioner  "Current use over time"  ETV
vector 222  ApplicationClusteringImplementations.Node2.TemperatureSensor.SignalConverter  "Energy Consumptions"  ETV
vector 223  ApplicationClusteringImplementations.Node2.TemperatureSensor.SignalConverter  "Current use over time"  ETV
vector 224  ApplicationClusteringImplementations.Node2.TemperatureSensor.Transducer  "Energy Consumptions"  ETV
vector 225  ApplicationClusteringImplementations.Node2.TemperatureSensor.Transducer  "Current use over time"  ETV
vector 226  ApplicationClusteringImplementations.Node2.HumiditySensor.SensingUnit  "Energy Consumptions"  ETV
vector 227  ApplicationClusteringImplementations.Node2.HumiditySensor.SensingUnit  "Current use over time"  ETV
vector 228  ApplicationClusteringImplementations.Node2.HumiditySensor.SignalConditioner  "Energy Consumptions"  ETV
vector 229  ApplicationClusteringImplementations.Node2.HumiditySensor.SignalConditioner  "Current use over time"  ETV
vector 230  ApplicationClusteringImplementations.Node2.HumiditySensor.SignalConverter  "Energy Consumptions"  ETV
vector 231  ApplicationClusteringImplementations.Node2.HumiditySensor.SignalConverter  "Current use over time"  ETV
vector 232  ApplicationClusteringImplementations.Node2.HumiditySensor.Transducer  "Energy Consumptions"  ETV
vector 233  ApplicationClusteringImplementations.Node2.HumiditySensor.Transducer  "Current use over time"  ETV
vector 234  ApplicationClusteringImplementations.Node2.Memory  "Energy Consumptions"  ETV
vector 235  ApplicationClusteringImplementations.Node2.Memory  "Current use over time"  ETV
vector 243  ApplicationClusteringImplementations.Node3.TemperatureSensor.SensingUnit  "Energy Consumptions"  ETV
vector 244  ApplicationClusteringImplementations.Node3.TemperatureSensor.SensingUnit  "Current use over time"  ETV
vector 245  ApplicationClusteringImplementations.Node3.TemperatureSensor.SignalConditioner  "Energy Consumptions"  ETV
vector 246  ApplicationClusteringImplementations.Node3.TemperatureSensor.SignalConditioner  "Current use over time"  ETV
vector 247  ApplicationClusteringImplementations.Node3.TemperatureSensor.SignalConverter  "Energy Consumptions"  ETV
vector 248  ApplicationClusteringImplementations.Node3.TemperatureSensor.SignalConverter  "Current use over time"  ETV
vector 249  ApplicationClusteringImplementations.Node3.TemperatureSensor.Transducer  "Energy Consumptions"  ETV
vector 250  ApplicationClusteringImplementations.Node3.TemperatureSensor.Transducer  "Current use over time"  ETV
vector 251  ApplicationClusteringImplementations.Node3.PressureSensor.SensingUnit  "Energy Consumptions"  ETV
vector 252  ApplicationClusteringImplementations.Node3.PressureSensor.SensingUnit  "Current use over time"  ETV
vector 253  ApplicationClusteringImplementations.Node3.PressureSensor.SignalConditioner  "Energy Consumptions"  ETV
vector 254  ApplicationClusteringImplementations.Node3.PressureSensor.SignalConditioner  "Current use over time"  ETV
vector 255  ApplicationClusteringImplementations.Node3.PressureSensor.SignalConverter  "Energy Consumptions"  ETV
vector 256  ApplicationClusteringImplementations.Node3.PressureSensor.SignalConverter  "Current use over time"  ETV
vector 257  ApplicationClusteringImplementations.Node3.PressureSensor.Transducer  "Energy Consumptions"  ETV
vector 258  ApplicationClusteringImplementations.Node3.PressureSensor.Transducer  "Current use over time"  ETV
vector 259  ApplicationClusteringImplementations.Node3.LightSensor.SensingUnit  "Energy Consumptions"  ETV
vector 260  ApplicationClusteringImplementations.Node3.LightSensor.SensingUnit  "Current use over time"  ETV
vector 261  ApplicationClusteringImplementations.Node3.LightSensor.SignalConditioner  "Energy Consumptions"  ETV
vector 262  ApplicationClusteringImplementations.Node3.LightSensor.SignalConditioner  "Current use over time"  ETV
vector 263  ApplicationClusteringImplementations.Node3.LightSensor.SignalConverter  "Energy Consumptions"  ETV
vector 264  ApplicationClusteringImplementations.Node3.LightSensor.SignalConverter  "Current use over time"  ETV
vector 265  ApplicationClusteringImplementations.Node3.LightSensor.Transducer  "Energy Consumptions"  ETV
vector 266  ApplicationClusteringImplementations.Node3.LightSensor.Transducer  "Current use over time"  ETV
vector 267  ApplicationClusteringImplementations.Node3.Memory  "Energy Consumptions"  ETV
vector 268  ApplicationClusteringImplementations.Node3.Memory  "Current use over time"  ETV
vector 276  ApplicationClusteringImplementations.Node4.HumiditySensor.SensingUnit  "Energy Consumptions"  ETV
vector 277  ApplicationClusteringImplementations.Node4.HumiditySensor.SensingUnit  "Current use over time"  ETV
vector 278  ApplicationClusteringImplementations.Node4.HumiditySensor.SignalConditioner  "Energy Consumptions"  ETV
vector 279  ApplicationClusteringImplementations.Node4.HumiditySensor.SignalConditioner  "Current use over time"  ETV
vector 280  ApplicationClusteringImplementations.Node4.HumiditySensor.SignalConverter  "Energy Consumptions"  ETV
vector 281  ApplicationClusteringImplementations.Node4.HumiditySensor.SignalConverter  "Current use over time"  ETV
vector 282  ApplicationClusteringImplementations.Node4.HumiditySensor.Transducer  "Energy Consumptions"  ETV
vector 283  ApplicationClusteringImplementations.Node4.HumiditySensor.Transducer  "Current use over time"  ETV
vector 284  ApplicationClusteringImplementations.Node4.Memory  "Energy Consumptions"  ETV
vector 285  ApplicationClusteringImplementations.Node4.Memory  "Current use over time"  ETV
vector 293  ApplicationClusteringImplementations.Node5.TemperatureSensor.SensingUnit  "Energy Consumptions"  ETV
vector 294  ApplicationClusteringImplementations.Node5.TemperatureSensor.SensingUnit  "Current use over time"  ETV
vector 295  ApplicationClusteringImplementations.Node5.TemperatureSensor.SignalConditioner  "Energy Consumptions"  ETV
vector 296  ApplicationClusteringImplementations.Node5.TemperatureSensor.SignalConditioner  "Current use over time"  ETV
vector 297  ApplicationClusteringImplementations.Node5.TemperatureSensor.SignalConverter  "Energy Consumptions"  ETV
vector 298  ApplicationClusteringImplementations.Node5.TemperatureSensor.SignalConverter  "Current use over time"  ETV
vector 299  ApplicationClusteringImplementations.Node5.TemperatureSensor.Transducer  "Energy Consumptions"  ETV
vector 300  ApplicationClusteringImplementations.Node5.TemperatureSensor.Transducer  "Current use over time"  ETV
vector 301  ApplicationClusteringImplementations.Node5.HumiditySensor.SensingUnit  "Energy Consumptions"  ETV
vector 302  ApplicationClusteringImplementations.Node5.HumiditySensor.SensingUnit  "Current use over time"  ETV
vector 303  ApplicationClusteringImplementations.Node5.HumiditySensor.SignalConditioner  "Energy Consumptions"  ETV
vector 304  ApplicationClusteringImplementations.Node5.HumiditySensor.SignalConditioner  "Current use over time"  ETV
vector 305  ApplicationClusteringImplementations.Node5.HumiditySensor.SignalConverter  "Energy Consumptions"  ETV
vector 306  ApplicationClusteringImplementations.Node5.HumiditySensor.SignalConverter  "Current use over time"  ETV
vector 307  ApplicationClusteringImplementations.Node5.HumiditySensor.Transducer  "Energy Consumptions"  ETV
vector 308  ApplicationClusteringImplementations.Node5.HumiditySensor.Transducer  "Current use over time"  ETV
vector 309  ApplicationClusteringImplementations.Node5.PressureSensor.SensingUnit  "Energy Consumptions"  ETV
vector 310  ApplicationClusteringImplementations.Node5.PressureSensor.SensingUnit  "Current use over time"  ETV
vector 311  ApplicationClusteringImplementations.Node5.PressureSensor.SignalConditioner  "Energy Consumptions"  ETV
vector 312  ApplicationClusteringImplementations.Node5.PressureSensor.SignalConditioner  "Current use over time"  ETV
vector 313  ApplicationClusteringImplementations.Node5.PressureSensor.SignalConverter  "Energy Consumptions"  ETV
vector 314  ApplicationClusteringImplementations.Node5.PressureSensor.SignalConverter  "Current use over time"  ETV
vector 315  ApplicationClusteringImplementations.Node5.PressureSensor.Transducer  "Energy Consumptions"  ETV
vector 316  ApplicationClusteringImplementations.Node5.PressureSensor.Transducer  "Current use over time"  ETV
vector 317  ApplicationClusteringImplementations.Node5.LightSensor.SensingUnit  "Energy Consumptions"  ETV
vector 318  ApplicationClusteringImplementations.Node5.LightSensor.SensingUnit  "Current use over time"  ETV
vector 319  ApplicationClusteringImplementations.Node5.LightSensor.SignalConditioner  "Energy Consumptions"  ETV
vector 320  ApplicationClusteringImplementations.Node5.LightSensor.SignalConditioner  "Current use over time"  ETV
vector 321  ApplicationClusteringImplementations.Node5.LightSensor.SignalConverter  "Energy Consumptions"  ETV
vector 322  ApplicationClusteringImplementations.Node5.LightSensor.SignalConverter  "Current use over time"  ETV
vector 323  ApplicationClusteringImplementations.Node5.LightSensor.Transducer  "Energy Consumptions"  ETV
vector 324  ApplicationClusteringImplementations.Node5.LightSensor.Transducer  "Current use over time"  ETV
vector 325  ApplicationClusteringImplementations.Node5.Memory  "Energy Consumptions"  ETV
vector 326  ApplicationClusteringImplementations.Node5.Memory  "Current use over time"  ETV
vector 334  ApplicationClusteringImplementations.Node6.LightSensor.SensingUnit  "Energy Consumptions"  ETV
vector 335  ApplicationClusteringImplementations.Node6.LightSensor.SensingUnit  "Current use over time"  ETV
vector 336  ApplicationClusteringImplementations.Node6.LightSensor.SignalConditioner  "Energy Consumptions"  ETV
vector 337  ApplicationClusteringImplementations.Node6.LightSensor.SignalConditioner  "Current use over time"  ETV
vector 338  ApplicationClusteringImplementations.Node6.LightSensor.SignalConverter  "Energy Consumptions"  ETV
vector 339  ApplicationClusteringImplementations.Node6.LightSensor.SignalConverter  "Current use over time"  ETV
vector 340  ApplicationClusteringImplementations.Node6.LightSensor.Transducer  "Energy Consumptions"  ETV
vector 341  ApplicationClusteringImplementations.Node6.LightSensor.Transducer  "Current use over time"  ETV
vector 342  ApplicationClusteringImplementations.Node6.Memory  "Energy Consumptions"  ETV
vector 343  ApplicationClusteringImplementations.Node6.Memory  "Current use over time"  ETV
vector 351  ApplicationClusteringImplementations.Node7.TemperatureSensor.SensingUnit  "Energy Consumptions"  ETV
vector 352  ApplicationClusteringImplementations.Node7.TemperatureSensor.SensingUnit  "Current use over time"  ETV
vector 353  ApplicationClusteringImplementations.Node7.TemperatureSensor.SignalConditioner  "Energy Consumptions"  ETV
vector 354  ApplicationClusteringImplementations.Node7.TemperatureSensor.SignalConditioner  "Current use over time"  ETV
vector 355  ApplicationClusteringImplementations.Node7.TemperatureSensor.SignalConverter  "Energy Consumptions"  ETV
vector 356  ApplicationClusteringImplementations.Node7.TemperatureSensor.SignalConverter  "Current use over time"  ETV
vector 357  ApplicationClusteringImplementations.Node7.TemperatureSensor.Transducer  "Energy Consumptions"  ETV
vector 358  ApplicationClusteringImplementations.Node7.TemperatureSensor.Transducer  "Current use over time"  ETV
vector 359  ApplicationClusteringImplementations.Node7.HumiditySensor.SensingUnit  "Energy Consumptions"  ETV
vector 360  ApplicationClusteringImplementations.Node7.HumiditySensor.SensingUnit  "Current use over time"  ETV
vector 361  ApplicationClusteringImplementations.Node7.HumiditySensor.SignalConditioner  "Energy Consumptions"  ETV
vector 362  ApplicationClusteringImplementations.Node7.HumiditySensor.SignalConditioner  "Current use over time"  ETV
vector 363  ApplicationClusteringImplementations.Node7.HumiditySensor.SignalConverter  "Energy Consumptions"  ETV
vector 364  ApplicationClusteringImplementations.Node7.HumiditySensor.SignalConverter  "Current use over time"  ETV
vector 365  ApplicationClusteringImplementations.Node7.HumiditySensor.Transducer  "Energy Consumptions"  ETV
vector 366  ApplicationClusteringImplementations.Node7.HumiditySensor.Transducer  "Current use over time"  ETV
vector 367  ApplicationClusteringImplementations.Node7.PressureSensor.SensingUnit  "Energy Consumptions"  ETV
vector 368  ApplicationClusteringImplementations.Node7.PressureSensor.SensingUnit  "Current use over time"  ETV
vector 369  ApplicationClusteringImplementations.Node7.PressureSensor.SignalConditioner  "Energy Consumptions"  ETV
vector 370  ApplicationClusteringImplementations.Node7.PressureSensor.SignalConditioner  "Current use over time"  ETV
vector 371  ApplicationClusteringImplementations.Node7.PressureSensor.SignalConverter  "Energy Consumptions"  ETV
vector 372  ApplicationClusteringImplementations.Node7.PressureSensor.SignalConverter  "Current use over time"  ETV
vector 373  ApplicationClusteringImplementations.Node7.PressureSensor.Transducer  "Energy Consumptions"  ETV
vector 374  ApplicationClusteringImplementations.Node7.PressureSensor.Transducer  "Current use over time"  ETV
vector 375  ApplicationClusteringImplementations.Node7.Memory  "Energy Consumptions"  ETV
vector 376  ApplicationClusteringImplementations.Node7.Memory  "Current use over time"  ETV
vector 384  ApplicationClusteringImplementations.Node8.LightSensor.SensingUnit  "Energy Consumptions"  ETV
vector 385  ApplicationClusteringImplementations.Node8.LightSensor.SensingUnit  "Current use over time"  ETV
vector 386  ApplicationClusteringImplementations.Node8.LightSensor.SignalConditioner  "Energy Consumptions"  ETV
vector 387  ApplicationClusteringImplementations.Node8.LightSensor.SignalConditioner  "Current use over time"  ETV
vector 388  ApplicationClusteringImplementations.Node8.LightSensor.SignalConverter  "Energy Consumptions"  ETV
vector 389  ApplicationClusteringImplementations.Node8.LightSensor.SignalConverter  "Current use over time"  ETV
vector 390  ApplicationClusteringImplementations.Node8.LightSensor.Transducer  "Energy Consumptions"  ETV
vector 391  ApplicationClusteringImplementations.Node8.LightSensor.Transducer  "Current use over time"  ETV
vector 392  ApplicationClusteringImplementations.Node8.Memory  "Energy Consumptions"  ETV
vector 393  ApplicationClusteringImplementations.Node8.Memory  "Current use over time"  ETV
vector 401  ApplicationClusteringImplementations.Node9.TemperatureSensor.SensingUnit  "Energy Consumptions"  ETV
vector 402  ApplicationClusteringImplementations.Node9.TemperatureSensor.SensingUnit  "Current use over time"  ETV
vector 403  ApplicationClusteringImplementations.Node9.TemperatureSensor.SignalConditioner  "Energy Consumptions"  ETV
vector 404  ApplicationClusteringImplementations.Node9.TemperatureSensor.SignalConditioner  "Current use over time"  ETV
vector 405  ApplicationClusteringImplementations.Node9.TemperatureSensor.SignalConverter  "Energy Consumptions"  ETV
vector 406  ApplicationClusteringImplementations.Node9.TemperatureSensor.SignalConverter  "Current use over time"  ETV
vector 407  ApplicationClusteringImplementations.Node9.TemperatureSensor.Transducer  "Energy Consumptions"  ETV
vector 408  ApplicationClusteringImplementations.Node9.TemperatureSensor.Transducer  "Current use over time"  ETV
vector 409  ApplicationClusteringImplementations.Node9.HumiditySensor.SensingUnit  "Energy Consumptions"  ETV
vector 410  ApplicationClusteringImplementations.Node9.HumiditySensor.SensingUnit  "Current use over time"  ETV
vector 411  ApplicationClusteringImplementations.Node9.HumiditySensor.SignalConditioner  "Energy Consumptions"  ETV
vector 412  ApplicationClusteringImplementations.Node9.HumiditySensor.SignalConditioner  "Current use over time"  ETV
vector 413  ApplicationClusteringImplementations.Node9.HumiditySensor.SignalConverter  "Energy Consumptions"  ETV
vector 414  ApplicationClusteringImplementations.Node9.HumiditySensor.SignalConverter  "Current use over time"  ETV
vector 415  ApplicationClusteringImplementations.Node9.HumiditySensor.Transducer  "Energy Consumptions"  ETV
vector 416  ApplicationClusteringImplementations.Node9.HumiditySensor.Transducer  "Current use over time"  ETV
vector 417  ApplicationClusteringImplementations.Node9.LightSensor.SensingUnit  "Energy Consumptions"  ETV
vector 418  ApplicationClusteringImplementations.Node9.LightSensor.SensingUnit  "Current use over time"  ETV
vector 419  ApplicationClusteringImplementations.Node9.LightSensor.SignalConditioner  "Energy Consumptions"  ETV
vector 420  ApplicationClusteringImplementations.Node9.LightSensor.SignalConditioner  "Current use over time"  ETV
vector 421  ApplicationClusteringImplementations.Node9.LightSensor.SignalConverter  "Energy Consumptions"  ETV
vector 422  ApplicationClusteringImplementations.Node9.LightSensor.SignalConverter  "Current use over time"  ETV
vector 423  ApplicationClusteringImplementations.Node9.LightSensor.Transducer  "Energy Consumptions"  ETV
vector 424  ApplicationClusteringImplementations.Node9.LightSensor.Transducer  "Current use over time"  ETV
vector 425  ApplicationClusteringImplementations.Node9.Memory  "Energy Consumptions"  ETV
vector 426  ApplicationClusteringImplementations.Node9.Memory  "Current use over time"  ETV
vector 434  ApplicationClusteringImplementations.Node10.LightSensor.SensingUnit  "Energy Consumptions"  ETV
vector 435  ApplicationClusteringImplementations.Node10.LightSensor.SensingUnit  "Current use over time"  ETV
vector 436  ApplicationClusteringImplementations.Node10.LightSensor.SignalConditioner  "Energy Consumptions"  ETV
vector 437  ApplicationClusteringImplementations.Node10.LightSensor.SignalConditioner  "Current use over time"  ETV
vector 438  ApplicationClusteringImplementations.Node10.LightSensor.SignalConverter  "Energy Consumptions"  ETV
vector 439  ApplicationClusteringImplementations.Node10.LightSensor.SignalConverter  "Current use over time"  ETV
vector 440  ApplicationClusteringImplementations.Node10.LightSensor.Transducer  "Energy Consumptions"  ETV
vector 441  ApplicationClusteringImplementations.Node10.LightSensor.Transducer  "Current use over time"  ETV
vector 442  ApplicationClusteringImplementations.Node10.Memory  "Energy Consumptions"  ETV
vector 443  ApplicationClusteringImplementations.Node10.Memory  "Current use over time"  ETV
vector 451  ApplicationClusteringImplementations.Node11.TemperatureSensor.SensingUnit  "Energy Consumptions"  ETV
vector 452  ApplicationClusteringImplementations.Node11.TemperatureSensor.SensingUnit  "Current use over time"  ETV
vector 453  ApplicationClusteringImplementations.Node11.TemperatureSensor.SignalConditioner  "Energy Consumptions"  ETV
vector 454  ApplicationClusteringImplementations.Node11.TemperatureSensor.SignalConditioner  "Current use over time"  ETV
vector 455  ApplicationClusteringImplementations.Node11.TemperatureSensor.SignalConverter  "Energy Consumptions"  ETV
vector 456  ApplicationClusteringImplementations.Node11.TemperatureSensor.SignalConverter  "Current use over time"  ETV