version 2
run General-0-20151208-16:28:47-26722
attr configname General
attr datetime 20151208-16:28:47
attr experiment General
attr inifile omnetpp.ini
attr iterationvars ""
attr iterationvars2 $repetition=0
attr measurement ""
attr network ApplicationClusteringImplementations
attr processid 26722
attr repetition 0
attr replication #0
attr resultdir results
attr runnumber 0
attr seedset 0

vector 9  ApplicationClusteringImplementations.Node9.Processor  "power mode"  ETV
vector 10  ApplicationClusteringImplementations.Node9.Processor  "Sensor Modules Status"  ETV
vector 11  ApplicationClusteringImplementations.Node9.Processor  Voltage  ETV
vector 12  ApplicationClusteringImplementations.Node9.Processor  residualRelative  ETV
vector 13  ApplicationClusteringImplementations.Node9.Processor  residualAbs  ETV
vector 23  ApplicationClusteringImplementations.Node10.Processor  "power mode"  ETV
vector 24  ApplicationClusteringImplementations.Node10.Processor  "Sensor Modules Status"  ETV
vector 25  ApplicationClusteringImplementations.Node10.Processor  Voltage  ETV
vector 26  ApplicationClusteringImplementations.Node10.Processor  residualRelative  ETV
vector 27  ApplicationClusteringImplementations.Node10.Processor  residualAbs  ETV
vector 37  ApplicationClusteringImplementations.Node11.Processor  "power mode"  ETV
vector 38  ApplicationClusteringImplementations.Node11.Processor  "Sensor Modules Status"  ETV
vector 39  ApplicationClusteringImplementations.Node11.Processor  Voltage  ETV
vector 40  ApplicationClusteringImplementations.Node11.Processor  residualRelative  ETV
vector 41  ApplicationClusteringImplementations.Node11.Processor  residualAbs  ETV
vector 51  ApplicationClusteringImplementations.Node12.Processor  "power mode"  ETV
vector 52  ApplicationClusteringImplementations.Node12.Processor  "Sensor Modules Status"  ETV
vector 53  ApplicationClusteringImplementations.Node12.Processor  Voltage  ETV
vector 54  ApplicationClusteringImplementations.Node12.Processor  residualRelative  ETV
vector 55  ApplicationClusteringImplementations.Node12.Processor  residualAbs  ETV
vector 65  ApplicationClusteringImplementations.Node13.Processor  "power mode"  ETV
vector 66  ApplicationClusteringImplementations.Node13.Processor  "Sensor Modules Status"  ETV
vector 67  ApplicationClusteringImplementations.Node13.Processor  Voltage  ETV
vector 68  ApplicationClusteringImplementations.Node13.Processor  residualRelative  ETV
vector 69  ApplicationClusteringImplementations.Node13.Processor  residualAbs  ETV
vector 70  ApplicationClusteringImplementations.Node9.TemperatureSensor.SensingUnit  "Energy Consumptions"  ETV
vector 71  ApplicationClusteringImplementations.Node9.TemperatureSensor.SensingUnit  "Current use over time"  ETV
vector 72  ApplicationClusteringImplementations.Node9.TemperatureSensor.SignalConditioner  "Energy Consumptions"  ETV
vector 73  ApplicationClusteringImplementations.Node9.TemperatureSensor.SignalConditioner  "Current use over time"  ETV
vector 74  ApplicationClusteringImplementations.Node9.TemperatureSensor.SignalConverter  "Energy Consumptions"  ETV
vector 75  ApplicationClusteringImplementations.Node9.TemperatureSensor.SignalConverter  "Current use over time"  ETV
vector 76  ApplicationClusteringImplementations.Node9.TemperatureSensor.Transducer  "Energy Consumptions"  ETV
vector 77  ApplicationClusteringImplementations.Node9.TemperatureSensor.Transducer  "Current use over time"  ETV
vector 78  ApplicationClusteringImplementations.Node9.Memory  "Energy Consumptions"  ETV
vector 79  ApplicationClusteringImplementations.Node9.Memory  "Current use over time"  ETV
vector 87  ApplicationClusteringImplementations.Node10.TemperatureSensor.SensingUnit  "Energy Consumptions"  ETV
vector 88  ApplicationClusteringImplementations.Node10.TemperatureSensor.SensingUnit  "Current use over time"  ETV
vector 89  ApplicationClusteringImplementations.Node10.TemperatureSensor.SignalConditioner  "Energy Consumptions"  ETV
vector 90  ApplicationClusteringImplementations.Node10.TemperatureSensor.SignalConditioner  "Current use over time"  ETV
vector 91  ApplicationClusteringImplementations.Node10.TemperatureSensor.SignalConverter  "Energy Consumptions"  ETV
vector 92  ApplicationClusteringImplementations.Node10.TemperatureSensor.SignalConverter  "Current use over time"  ETV
vector 93  ApplicationClusteringImplementations.Node10.TemperatureSensor.Transducer  "Energy Consumptions"  ETV
vector 94  ApplicationClusteringImplementations.Node10.TemperatureSensor.Transducer  "Current use over time"  ETV
vector 95  ApplicationClusteringImplementations.Node10.Memory  "Energy Consumptions"  ETV
vector 96  ApplicationClusteringImplementations.Node10.Memory  "Current use over time"  ETV
vector 104  ApplicationClusteringImplementations.Node11.TemperatureSensor.SensingUnit  "Energy Consumptions"  ETV
vector 105  ApplicationClusteringImplementations.Node11.TemperatureSensor.SensingUnit  "Current use over time"  ETV
vector 106  ApplicationClusteringImplementations.Node11.TemperatureSensor.SignalConditioner  "Energy Consumptions"  ETV
vector 107  ApplicationClusteringImplementations.Node11.TemperatureSensor.SignalConditioner  "Current use over time"  ETV
vector 108  ApplicationClusteringImplementations.Node11.TemperatureSensor.SignalConverter  "Energy Consumptions"  ETV
vector 109  ApplicationClusteringImplementations.Node11.TemperatureSensor.SignalConverter  "Current use over time"  ETV
vector 110  ApplicationClusteringImplementations.Node11.TemperatureSensor.Transducer  "Energy Consumptions"  ETV
vector 111  ApplicationClusteringImplementations.Node11.TemperatureSensor.Transducer  "Current use over time"  ETV
vector 112  ApplicationClusteringImplementations.Node11.Memory  "Energy Consumptions"  ETV
vector 113  ApplicationClusteringImplementations.Node11.Memory  "Current use over time"  ETV
vector 121  ApplicationClusteringImplementations.Node12.TemperatureSensor.SensingUnit  "Energy Consumptions"  ETV
vector 122  ApplicationClusteringImplementations.Node12.TemperatureSensor.SensingUnit  "Current use over time"  ETV
vector 123  ApplicationClusteringImplementations.Node12.TemperatureSensor.SignalConditioner  "Energy Consumptions"  ETV
vector 124  ApplicationClusteringImplementations.Node12.TemperatureSensor.SignalConditioner  "Current use over time"  ETV
vector 125  ApplicationClusteringImplementations.Node12.TemperatureSensor.SignalConverter  "Energy Consumptions"  ETV
vector 126  ApplicationClusteringImplementations.Node12.TemperatureSensor.SignalConverter  "Current use over time"  ETV
vector 127  ApplicationClusteringImplementations.Node12.TemperatureSensor.Transducer  "Energy Consumptions"  ETV
vector 128  ApplicationClusteringImplementations.Node12.TemperatureSensor.Transducer  "Current use over time"  ETV
vector 129  ApplicationClusteringImplementations.Node12.Memory  "Energy Consumptions"  ETV
vector 130  ApplicationClusteringImplementations.Node12.Memory  "Current use over time"  ETV
vector 138  ApplicationClusteringImplementations.Node13.TemperatureSensor.SensingUnit  "Energy Consumptions"  ETV
vector 139  ApplicationClusteringImplementations.Node13.TemperatureSensor.SensingUnit  "Current use over time"  ETV
vector 140  ApplicationClusteringImplementations.Node13.TemperatureSensor.SignalConditioner  "Energy Consumptions"  ETV
vector 141  ApplicationClusteringImplementations.Node13.TemperatureSensor.SignalConditioner  "Current use over time"  ETV
vector 142  ApplicationClusteringImplementations.Node13.TemperatureSensor.SignalConverter  "Energy Consumptions"  ETV
vector 143  ApplicationClusteringImplementations.Node13.TemperatureSensor.SignalConverter  "Current use over time"  ETV
vector 144  ApplicationClusteringImplementations.Node13.TemperatureSensor.Transducer  "Energy Consumptions"  ETV
vector 145  ApplicationClusteringImplementations.Node13.TemperatureSensor.Transducer  "Current use over time"  ETV
vector 146  ApplicationClusteringImplementations.Node13.Memory  "Energy Consumptions"  ETV
vector 147  ApplicationClusteringImplementations.Node13.Memory  "Current use over time"  ETV
