version 2
run General-0-20151116-13:25:07-19590
attr configname General
attr datetime 20151116-13:25:07
attr experiment General
attr inifile omnetpp.ini
attr iterationvars ""
attr iterationvars2 $repetition=0
attr measurement ""
attr network ApplicationClusteringImplementations
attr processid 19590
attr repetition 0
attr replication #0
attr resultdir results
attr runnumber 0
attr seedset 0

vector 7  ApplicationClusteringImplementations.TemperatureSensorNode0.Processor  "power mode"  ETV
vector 8  ApplicationClusteringImplementations.TemperatureSensorNode0.Processor  "Sensor Modules Status"  ETV
vector 9  ApplicationClusteringImplementations.TemperatureSensorNode0.Processor  Voltage  ETV
vector 10  ApplicationClusteringImplementations.TemperatureSensorNode0.Processor  residualRelative  ETV
vector 11  ApplicationClusteringImplementations.TemperatureSensorNode0.Processor  residualAbs  ETV
vector 19  ApplicationClusteringImplementations.TemperatureSensorNode1.Processor  "power mode"  ETV
vector 20  ApplicationClusteringImplementations.TemperatureSensorNode1.Processor  "Sensor Modules Status"  ETV
vector 21  ApplicationClusteringImplementations.TemperatureSensorNode1.Processor  Voltage  ETV
vector 22  ApplicationClusteringImplementations.TemperatureSensorNode1.Processor  residualRelative  ETV
vector 23  ApplicationClusteringImplementations.TemperatureSensorNode1.Processor  residualAbs  ETV
vector 31  ApplicationClusteringImplementations.TemperatureSensorNode2.Processor  "power mode"  ETV
vector 32  ApplicationClusteringImplementations.TemperatureSensorNode2.Processor  "Sensor Modules Status"  ETV
vector 33  ApplicationClusteringImplementations.TemperatureSensorNode2.Processor  Voltage  ETV
vector 34  ApplicationClusteringImplementations.TemperatureSensorNode2.Processor  residualRelative  ETV
vector 35  ApplicationClusteringImplementations.TemperatureSensorNode2.Processor  residualAbs  ETV
vector 43  ApplicationClusteringImplementations.TemperatureSensorNode3.Processor  "power mode"  ETV
vector 44  ApplicationClusteringImplementations.TemperatureSensorNode3.Processor  "Sensor Modules Status"  ETV
vector 45  ApplicationClusteringImplementations.TemperatureSensorNode3.Processor  Voltage  ETV
vector 46  ApplicationClusteringImplementations.TemperatureSensorNode3.Processor  residualRelative  ETV
vector 47  ApplicationClusteringImplementations.TemperatureSensorNode3.Processor  residualAbs  ETV
vector 55  ApplicationClusteringImplementations.TemperatureSensorNode4.Processor  "power mode"  ETV
vector 56  ApplicationClusteringImplementations.TemperatureSensorNode4.Processor  "Sensor Modules Status"  ETV
vector 57  ApplicationClusteringImplementations.TemperatureSensorNode4.Processor  Voltage  ETV
vector 58  ApplicationClusteringImplementations.TemperatureSensorNode4.Processor  residualRelative  ETV
vector 59  ApplicationClusteringImplementations.TemperatureSensorNode4.Processor  residualAbs  ETV
vector 67  ApplicationClusteringImplementations.TemperatureSensorNode5.Processor  "power mode"  ETV
vector 68  ApplicationClusteringImplementations.TemperatureSensorNode5.Processor  "Sensor Modules Status"  ETV
vector 69  ApplicationClusteringImplementations.TemperatureSensorNode5.Processor  Voltage  ETV
vector 70  ApplicationClusteringImplementations.TemperatureSensorNode5.Processor  residualRelative  ETV
vector 71  ApplicationClusteringImplementations.TemperatureSensorNode5.Processor  residualAbs  ETV
vector 79  ApplicationClusteringImplementations.TemperatureSensorNode6.Processor  "power mode"  ETV
vector 80  ApplicationClusteringImplementations.TemperatureSensorNode6.Processor  "Sensor Modules Status"  ETV
vector 81  ApplicationClusteringImplementations.TemperatureSensorNode6.Processor  Voltage  ETV
vector 82  ApplicationClusteringImplementations.TemperatureSensorNode6.Processor  residualRelative  ETV
vector 83  ApplicationClusteringImplementations.TemperatureSensorNode6.Processor  residualAbs  ETV
vector 91  ApplicationClusteringImplementations.TemperatureSensorNode7.Processor  "power mode"  ETV
vector 92  ApplicationClusteringImplementations.TemperatureSensorNode7.Processor  "Sensor Modules Status"  ETV
vector 93  ApplicationClusteringImplementations.TemperatureSensorNode7.Processor  Voltage  ETV
vector 94  ApplicationClusteringImplementations.TemperatureSensorNode7.Processor  residualRelative  ETV
vector 95  ApplicationClusteringImplementations.TemperatureSensorNode7.Processor  residualAbs  ETV
vector 103  ApplicationClusteringImplementations.TemperatureSensorNode8.Processor  "power mode"  ETV
vector 104  ApplicationClusteringImplementations.TemperatureSensorNode8.Processor  "Sensor Modules Status"  ETV
vector 105  ApplicationClusteringImplementations.TemperatureSensorNode8.Processor  Voltage  ETV
vector 106  ApplicationClusteringImplementations.TemperatureSensorNode8.Processor  residualRelative  ETV
vector 107  ApplicationClusteringImplementations.TemperatureSensorNode8.Processor  residualAbs  ETV
vector 115  ApplicationClusteringImplementations.TemperatureSensorNode9.Processor  "power mode"  ETV
vector 116  ApplicationClusteringImplementations.TemperatureSensorNode9.Processor  "Sensor Modules Status"  ETV
vector 117  ApplicationClusteringImplementations.TemperatureSensorNode9.Processor  Voltage  ETV
vector 118  ApplicationClusteringImplementations.TemperatureSensorNode9.Processor  residualRelative  ETV
vector 119  ApplicationClusteringImplementations.TemperatureSensorNode9.Processor  residualAbs  ETV
vector 127  ApplicationClusteringImplementations.TemperatureSensorNode10.Processor  "power mode"  ETV
vector 128  ApplicationClusteringImplementations.TemperatureSensorNode10.Processor  "Sensor Modules Status"  ETV
vector 129  ApplicationClusteringImplementations.TemperatureSensorNode10.Processor  Voltage  ETV
vector 130  ApplicationClusteringImplementations.TemperatureSensorNode10.Processor  residualRelative  ETV
vector 131  ApplicationClusteringImplementations.TemperatureSensorNode10.Processor  residualAbs  ETV
vector 139  ApplicationClusteringImplementations.TemperatureSensorNode11.Processor  "power mode"  ETV
vector 140  ApplicationClusteringImplementations.TemperatureSensorNode11.Processor  "Sensor Modules Status"  ETV
vector 141  ApplicationClusteringImplementations.TemperatureSensorNode11.Processor  Voltage  ETV
vector 142  ApplicationClusteringImplementations.TemperatureSensorNode11.Processor  residualRelative  ETV
vector 143  ApplicationClusteringImplementations.TemperatureSensorNode11.Processor  residualAbs  ETV
vector 151  ApplicationClusteringImplementations.TemperatureSensorNode0.TemperatureSensor.SensingUnit  "Energy Consumptions"  ETV
vector 152  ApplicationClusteringImplementations.TemperatureSensorNode0.TemperatureSensor.SensingUnit  "Current use over time"  ETV
vector 153  ApplicationClusteringImplementations.TemperatureSensorNode0.TemperatureSensor.SignalConditioner  "Energy Consumptions"  ETV
vector 154  ApplicationClusteringImplementations.TemperatureSensorNode0.TemperatureSensor.SignalConditioner  "Current use over time"  ETV
vector 155  ApplicationClusteringImplementations.TemperatureSensorNode0.TemperatureSensor.SignalConverter  "Energy Consumptions"  ETV
vector 156  ApplicationClusteringImplementations.TemperatureSensorNode0.TemperatureSensor.SignalConverter  "Current use over time"  ETV
vector 157  ApplicationClusteringImplementations.TemperatureSensorNode0.TemperatureSensor.Transducer  "Energy Consumptions"  ETV
vector 158  ApplicationClusteringImplementations.TemperatureSensorNode0.TemperatureSensor.Transducer  "Current use over time"  ETV
vector 159  ApplicationClusteringImplementations.TemperatureSensorNode0.Memory  "Energy Consumptions"  ETV
vector 160  ApplicationClusteringImplementations.TemperatureSensorNode0.Memory  "Current use over time"  ETV
vector 168  ApplicationClusteringImplementations.TemperatureSensorNode1.TemperatureSensor.SensingUnit  "Energy Consumptions"  ETV
vector 169  ApplicationClusteringImplementations.TemperatureSensorNode1.TemperatureSensor.SensingUnit  "Current use over time"  ETV
vector 170  ApplicationClusteringImplementations.TemperatureSensorNode1.TemperatureSensor.SignalConditioner  "Energy Consumptions"  ETV
vector 171  ApplicationClusteringImplementations.TemperatureSensorNode1.TemperatureSensor.SignalConditioner  "Current use over time"  ETV
vector 172  ApplicationClusteringImplementations.TemperatureSensorNode1.TemperatureSensor.SignalConverter  "Energy Consumptions"  ETV
vector 173  ApplicationClusteringImplementations.TemperatureSensorNode1.TemperatureSensor.SignalConverter  "Current use over time"  ETV
vector 174  ApplicationClusteringImplementations.TemperatureSensorNode1.TemperatureSensor.Transducer  "Energy Consumptions"  ETV
vector 175  ApplicationClusteringImplementations.TemperatureSensorNode1.TemperatureSensor.Transducer  "Current use over time"  ETV
vector 176  ApplicationClusteringImplementations.TemperatureSensorNode1.Memory  "Energy Consumptions"  ETV
vector 177  ApplicationClusteringImplementations.TemperatureSensorNode1.Memory  "Current use over time"  ETV
vector 185  ApplicationClusteringImplementations.TemperatureSensorNode2.TemperatureSensor.SensingUnit  "Energy Consumptions"  ETV
vector 186  ApplicationClusteringImplementations.TemperatureSensorNode2.TemperatureSensor.SensingUnit  "Current use over time"  ETV
vector 187  ApplicationClusteringImplementations.TemperatureSensorNode2.TemperatureSensor.SignalConditioner  "Energy Consumptions"  ETV
vector 188  ApplicationClusteringImplementations.TemperatureSensorNode2.TemperatureSensor.SignalConditioner  "Current use over time"  ETV
vector 189  ApplicationClusteringImplementations.TemperatureSensorNode2.TemperatureSensor.SignalConverter  "Energy Consumptions"  ETV
vector 190  ApplicationClusteringImplementations.TemperatureSensorNode2.TemperatureSensor.SignalConverter  "Current use over time"  ETV
vector 191  ApplicationClusteringImplementations.TemperatureSensorNode2.TemperatureSensor.Transducer  "Energy Consumptions"  ETV
vector 192  ApplicationClusteringImplementations.TemperatureSensorNode2.TemperatureSensor.Transducer  "Current use over time"  ETV
vector 193  ApplicationClusteringImplementations.TemperatureSensorNode2.Memory  "Energy Consumptions"  ETV
vector 194  ApplicationClusteringImplementations.TemperatureSensorNode2.Memory  "Current use over time"  ETV
vector 202  ApplicationClusteringImplementations.TemperatureSensorNode3.TemperatureSensor.SensingUnit  "Energy Consumptions"  ETV
vector 203  ApplicationClusteringImplementations.TemperatureSensorNode3.TemperatureSensor.SensingUnit  "Current use over time"  ETV
vector 204  ApplicationClusteringImplementations.TemperatureSensorNode3.TemperatureSensor.SignalConditioner  "Energy Consumptions"  ETV
vector 205  ApplicationClusteringImplementations.TemperatureSensorNode3.TemperatureSensor.SignalConditioner  "Current use over time"  ETV
vector 206  ApplicationClusteringImplementations.TemperatureSensorNode3.TemperatureSensor.SignalConverter  "Energy Consumptions"  ETV
vector 207  ApplicationClusteringImplementations.TemperatureSensorNode3.TemperatureSensor.SignalConverter  "Current use over time"  ETV
vector 208  ApplicationClusteringImplementations.TemperatureSensorNode3.TemperatureSensor.Transducer  "Energy Consumptions"  ETV
vector 209  ApplicationClusteringImplementations.TemperatureSensorNode3.TemperatureSensor.Transducer  "Current use over time"  ETV
vector 210  ApplicationClusteringImplementations.TemperatureSensorNode3.Memory  "Energy Consumptions"  ETV
vector 211  ApplicationClusteringImplementations.TemperatureSensorNode3.Memory  "Current use over time"  ETV
vector 219  ApplicationClusteringImplementations.TemperatureSensorNode4.TemperatureSensor.SensingUnit  "Energy Consumptions"  ETV
vector 220  ApplicationClusteringImplementations.TemperatureSensorNode4.TemperatureSensor.SensingUnit  "Current use over time"  ETV
vector 221  ApplicationClusteringImplementations.TemperatureSensorNode4.TemperatureSensor.SignalConditioner  "Energy Consumptions"  ETV
vector 222  ApplicationClusteringImplementations.TemperatureSensorNode4.TemperatureSensor.SignalConditioner  "Current use over time"  ETV
vector 223  ApplicationClusteringImplementations.TemperatureSensorNode4.TemperatureSensor.SignalConverter  "Energy Consumptions"  ETV
vector 224  ApplicationClusteringImplementations.TemperatureSensorNode4.TemperatureSensor.SignalConverter  "Current use over time"  ETV
vector 225  ApplicationClusteringImplementations.TemperatureSensorNode4.TemperatureSensor.Transducer  "Energy Consumptions"  ETV
vector 226  ApplicationClusteringImplementations.TemperatureSensorNode4.TemperatureSensor.Transducer  "Current use over time"  ETV
vector 227  ApplicationClusteringImplementations.TemperatureSensorNode4.Memory  "Energy Consumptions"  ETV
vector 228  ApplicationClusteringImplementations.TemperatureSensorNode4.Memory  "Current use over time"  ETV
vector 236  ApplicationClusteringImplementations.TemperatureSensorNode5.TemperatureSensor.SensingUnit  "Energy Consumptions"  ETV
vector 237  ApplicationClusteringImplementations.TemperatureSensorNode5.TemperatureSensor.SensingUnit  "Current use over time"  ETV
vector 238  ApplicationClusteringImplementations.TemperatureSensorNode5.TemperatureSensor.SignalConditioner  "Energy Consumptions"  ETV
vector 239  ApplicationClusteringImplementations.TemperatureSensorNode5.TemperatureSensor.SignalConditioner  "Current use over time"  ETV
vector 240  ApplicationClusteringImplementations.TemperatureSensorNode5.TemperatureSensor.SignalConverter  "Energy Consumptions"  ETV
vector 241  ApplicationClusteringImplementations.TemperatureSensorNode5.TemperatureSensor.SignalConverter  "Current use over time"  ETV
vector 242  ApplicationClusteringImplementations.TemperatureSensorNode5.TemperatureSensor.Transducer  "Energy Consumptions"  ETV
vector 243  ApplicationClusteringImplementations.TemperatureSensorNode5.TemperatureSensor.Transducer  "Current use over time"  ETV
vector 244  ApplicationClusteringImplementations.TemperatureSensorNode5.Memory  "Energy Consumptions"  ETV
vector 245  ApplicationClusteringImplementations.TemperatureSensorNode5.Memory  "Current use over time"  ETV
vector 253  ApplicationClusteringImplementations.TemperatureSensorNode6.TemperatureSensor.SensingUnit  "Energy Consumptions"  ETV
vector 254  ApplicationClusteringImplementations.TemperatureSensorNode6.TemperatureSensor.SensingUnit  "Current use over time"  ETV
vector 255  ApplicationClusteringImplementations.TemperatureSensorNode6.TemperatureSensor.SignalConditioner  "Energy Consumptions"  ETV
vector 256  ApplicationClusteringImplementations.TemperatureSensorNode6.TemperatureSensor.SignalConditioner  "Current use over time"  ETV
vector 257  ApplicationClusteringImplementations.TemperatureSensorNode6.TemperatureSensor.SignalConverter  "Energy Consumptions"  ETV
vector 258  ApplicationClusteringImplementations.TemperatureSensorNode6.TemperatureSensor.SignalConverter  "Current use over time"  ETV
vector 259  ApplicationClusteringImplementations.TemperatureSensorNode6.TemperatureSensor.Transducer  "Energy Consumptions"  ETV
vector 260  ApplicationClusteringImplementations.TemperatureSensorNode6.TemperatureSensor.Transducer  "Current use over time"  ETV
vector 261  ApplicationClusteringImplementations.TemperatureSensorNode6.Memory  "Energy Consumptions"  ETV
vector 262  ApplicationClusteringImplementations.TemperatureSensorNode6.Memory  "Current use over time"  ETV
vector 270  ApplicationClusteringImplementations.TemperatureSensorNode7.TemperatureSensor.SensingUnit  "Energy Consumptions"  ETV
vector 271  ApplicationClusteringImplementations.TemperatureSensorNode7.TemperatureSensor.SensingUnit  "Current use over time"  ETV
vector 272  ApplicationClusteringImplementations.TemperatureSensorNode7.TemperatureSensor.SignalConditioner  "Energy Consumptions"  ETV
vector 273  ApplicationClusteringImplementations.TemperatureSensorNode7.TemperatureSensor.SignalConditioner  "Current use over time"  ETV
vector 274  ApplicationClusteringImplementations.TemperatureSensorNode7.TemperatureSensor.SignalConverter  "Energy Consumptions"  ETV
vector 275  ApplicationClusteringImplementations.TemperatureSensorNode7.TemperatureSensor.SignalConverter  "Current use over time"  ETV
vector 276  ApplicationClusteringImplementations.TemperatureSensorNode7.TemperatureSensor.Transducer  "Energy Consumptions"  ETV
vector 277  ApplicationClusteringImplementations.TemperatureSensorNode7.TemperatureSensor.Transducer  "Current use over time"  ETV
vector 278  ApplicationClusteringImplementations.TemperatureSensorNode7.Memory  "Energy Consumptions"  ETV
vector 279  ApplicationClusteringImplementations.TemperatureSensorNode7.Memory  "Current use over time"  ETV
vector 287  ApplicationClusteringImplementations.TemperatureSensorNode8.TemperatureSensor.SensingUnit  "Energy Consumptions"  ETV
vector 288  ApplicationClusteringImplementations.TemperatureSensorNode8.TemperatureSensor.SensingUnit  "Current use over time"  ETV
vector 289  ApplicationClusteringImplementations.TemperatureSensorNode8.TemperatureSensor.SignalConditioner  "Energy Consumptions"  ETV
vector 290  ApplicationClusteringImplementations.TemperatureSensorNode8.TemperatureSensor.SignalConditioner  "Current use over time"  ETV
vector 291  ApplicationClusteringImplementations.TemperatureSensorNode8.TemperatureSensor.SignalConverter  "Energy Consumptions"  ETV
vector 292  ApplicationClusteringImplementations.TemperatureSensorNode8.TemperatureSensor.SignalConverter  "Current use over time"  ETV
vector 293  ApplicationClusteringImplementations.TemperatureSensorNode8.TemperatureSensor.Transducer  "Energy Consumptions"  ETV
vector 294  ApplicationClusteringImplementations.TemperatureSensorNode8.TemperatureSensor.Transducer  "Current use over time"  ETV
vector 295  ApplicationClusteringImplementations.TemperatureSensorNode8.Memory  "Energy Consumptions"  ETV
vector 296  ApplicationClusteringImplementations.TemperatureSensorNode8.Memory  "Current use over time"  ETV
vector 304  ApplicationClusteringImplementations.TemperatureSensorNode9.TemperatureSensor.SensingUnit  "Energy Consumptions"  ETV
vector 305  ApplicationClusteringImplementations.TemperatureSensorNode9.TemperatureSensor.SensingUnit  "Current use over time"  ETV
vector 306  ApplicationClusteringImplementations.TemperatureSensorNode9.TemperatureSensor.SignalConditioner  "Energy Consumptions"  ETV
vector 307  ApplicationClusteringImplementations.TemperatureSensorNode9.TemperatureSensor.SignalConditioner  "Current use over time"  ETV
vector 308  ApplicationClusteringImplementations.TemperatureSensorNode9.TemperatureSensor.SignalConverter  "Energy Consumptions"  ETV
vector 309  ApplicationClusteringImplementations.TemperatureSensorNode9.TemperatureSensor.SignalConverter  "Current use over time"  ETV
vector 310  ApplicationClusteringImplementations.TemperatureSensorNode9.TemperatureSensor.Transducer  "Energy Consumptions"  ETV
vector 311  ApplicationClusteringImplementations.TemperatureSensorNode9.TemperatureSensor.Transducer  "Current use over time"  ETV
vector 312  ApplicationClusteringImplementations.TemperatureSensorNode9.Memory  "Energy Consumptions"  ETV
vector 313  ApplicationClusteringImplementations.TemperatureSensorNode9.Memory  "Current use over time"  ETV
vector 321  ApplicationClusteringImplementations.TemperatureSensorNode10.TemperatureSensor.SensingUnit  "Energy Consumptions"  ETV
vector 322  ApplicationClusteringImplementations.TemperatureSensorNode10.TemperatureSensor.SensingUnit  "Current use over time"  ETV
vector 323  ApplicationClusteringImplementations.TemperatureSensorNode10.TemperatureSensor.SignalConditioner  "Energy Consumptions"  ETV
vector 324  ApplicationClusteringImplementations.TemperatureSensorNode10.TemperatureSensor.SignalConditioner  "Current use over time"  ETV
vector 325  ApplicationClusteringImplementations.TemperatureSensorNode10.TemperatureSensor.SignalConverter  "Energy Consumptions"  ETV
vector 326  ApplicationClusteringImplementations.TemperatureSensorNode10.TemperatureSensor.SignalConverter  "Current use over time"  ETV
vector 327  ApplicationClusteringImplementations.TemperatureSensorNode10.TemperatureSensor.Transducer  "Energy Consumptions"  ETV
vector 328  ApplicationClusteringImplementations.TemperatureSensorNode10.TemperatureSensor.Transducer  "Current use over time"  ETV
vector 329  ApplicationClusteringImplementations.TemperatureSensorNode10.Memory  "Energy Consumptions"  ETV
vector 330  ApplicationClusteringImplementations.TemperatureSensorNode10.Memory  "Current use over time"  ETV
vector 338  ApplicationClusteringImplementations.TemperatureSensorNode11.TemperatureSensor.SensingUnit  "Energy Consumptions"  ETV
vector 339  ApplicationClusteringImplementations.TemperatureSensorNode11.TemperatureSensor.SensingUnit  "Current use over time"  ETV
vector 340  ApplicationClusteringImplementations.TemperatureSensorNode11.TemperatureSensor.SignalConditioner  "Energy Consumptions"  ETV
vector 341  ApplicationClusteringImplementations.TemperatureSensorNode11.TemperatureSensor.SignalConditioner  "Current use over time"  ETV
vector 342  ApplicationClusteringImplementations.TemperatureSensorNode11.TemperatureSensor.SignalConverter  "Energy Consumptions"  ETV
vector 343  ApplicationClusteringImplementations.TemperatureSensorNode11.TemperatureSensor.SignalConverter  "Current use over time"  ETV
vector 344  ApplicationClusteringImplementations.TemperatureSensorNode11.TemperatureSensor.Transducer  "Energy Consumptions"  ETV
vector 345  ApplicationClusteringImplementations.TemperatureSensorNode11.TemperatureSensor.Transducer  "Current use over time"  ETV
vector 346  ApplicationClusteringImplementations.TemperatureSensorNode11.Memory  "Energy Consumptions"  ETV
vector 347  ApplicationClusteringImplementations.TemperatureSensorNode11.Memory  "Current use over time"  ETV
7	0	0	0
7	0	0	0
8	0	0	0
9	0	0	3
10	0	0	1
11	0	0	10800000
19	0	0	0
19	0	0	0
20	0	0	0
21	0	0	3
22	0	0	1
23	0	0	10800000
31	0	0	0
31	0	0	0
32	0	0	0
33	0	0	3
34	0	0	1
35	0	0	10800000
43	0	0	0
43	0	0	0
44	0	0	0
45	0	0	3
46	0	0	1
47	0	0	10800000
55	0	0	0
55	0	0	0
56	0	0	0
57	0	0	3
58	0	0	1
59	0	0	10800000
67	0	0	0
67	0	0	0
68	0	0	0
69	0	0	3
70	0	0	1
71	0	0	10800000
79	0	0	0
79	0	0	0
80	0	0	0
81	0	0	3
82	0	0	1
83	0	0	10800000
91	0	0	0
91	0	0	0
92	0	0	0
93	0	0	3
94	0	0	1
95	0	0	10800000
103	0	0	0
103	0	0	0
104	0	0	0
105	0	0	3
106	0	0	1
107	0	0	10800000
115	0	0	0
115	0	0	0
116	0	0	0
117	0	0	3
118	0	0	1
119	0	0	10800000
127	0	0	0
127	0	0	0
128	0	0	0
129	0	0	3
130	0	0	1
131	0	0	10800000
139	0	0	0
139	0	0	0
140	0	0	0
141	0	0	3
142	0	0	1
143	0	0	10800000
151	0	0	100
151	0	0	100
151	0	0	100
152	0	0	3
153	0	0	100
154	0	0	3
155	0	0	100
156	0	0	3
157	0	0	100
158	0	0	3
159	0	0	100
160	0	0	3
168	0	0	100
168	0	0	100
168	0	0	100
169	0	0	3
170	0	0	100
171	0	0	3
172	0	0	100
173	0	0	3
174	0	0	100
175	0	0	3
176	0	0	100
177	0	0	3
185	0	0	100
185	0	0	100
185	0	0	100
186	0	0	3
187	0	0	100
188	0	0	3
189	0	0	100
190	0	0	3
191	0	0	100
192	0	0	3
193	0	0	100
194	0	0	3
202	0	0	100
202	0	0	100
202	0	0	100
203	0	0	3
204	0	0	100
205	0	0	3
206	0	0	100
207	0	0	3
208	0	0	100
209	0	0	3
210	0	0	100
211	0	0	3
219	0	0	100
219	0	0	100
219	0	0	100
220	0	0	3
221	0	0	100
222	0	0	3
223	0	0	100
224	0	0	3
225	0	0	100
226	0	0	3
227	0	0	100
228	0	0	3
236	0	0	100
236	0	0	100
236	0	0	100
237	0	0	3
238	0	0	100
239	0	0	3
240	0	0	100
241	0	0	3
242	0	0	100
243	0	0	3
244	0	0	100
245	0	0	3
253	0	0	100
253	0	0	100
253	0	0	100
254	0	0	3
255	0	0	100
256	0	0	3
257	0	0	100
258	0	0	3
259	0	0	100
260	0	0	3
261	0	0	100
262	0	0	3
270	0	0	100
270	0	0	100
270	0	0	100
271	0	0	3
272	0	0	100
273	0	0	3
274	0	0	100
275	0	0	3
276	0	0	100
277	0	0	3
278	0	0	100
279	0	0	3
287	0	0	100
287	0	0	100
287	0	0	100
288	0	0	3
289	0	0	100
290	0	0	3
291	0	0	100
292	0	0	3
293	0	0	100
294	0	0	3
295	0	0	100
296	0	0	3
304	0	0	100
304	0	0	100
304	0	0	100
305	0	0	3
306	0	0	100
307	0	0	3
308	0	0	100
309	0	0	3
310	0	0	100
311	0	0	3
312	0	0	100
313	0	0	3
321	0	0	100
321	0	0	100
321	0	0	100
322	0	0	3
323	0	0	100
324	0	0	3
325	0	0	100
326	0	0	3
327	0	0	100
328	0	0	3
329	0	0	100
330	0	0	3
338	0	0	100
338	0	0	100
338	0	0	100
339	0	0	3
340	0	0	100
341	0	0	3
342	0	0	100
343	0	0	3
344	0	0	100
345	0	0	3
346	0	0	100
347	0	0	3
