file 93928 1448531240                                           
version 2
run General-0-20151126-10:46:57-15125
attr configname General
attr datetime 20151126-10:46:57
attr experiment General
attr inifile omnetpp.ini
attr iterationvars ""
attr iterationvars2 $repetition=0
attr measurement ""
attr network ApplicationClusteringImplementations
attr processid 15125
attr repetition 0
attr replication #0
attr resultdir results
attr runnumber 0
attr seedset 0

vector 7  ApplicationClusteringImplementations.TemperatureSensorNode0.Processor  "power mode"  ETV
vector 8  ApplicationClusteringImplementations.TemperatureSensorNode0.Processor  "Sensor Modules Status"  ETV
vector 9  ApplicationClusteringImplementations.TemperatureSensorNode0.Processor  Voltage  ETV
vector 10  ApplicationClusteringImplementations.TemperatureSensorNode0.Processor  residualRelative  ETV
vector 11  ApplicationClusteringImplementations.TemperatureSensorNode0.Processor  residualAbs  ETV
vector 19  ApplicationClusteringImplementations.TemperatureSensorNode1.Processor  "power mode"  ETV
vector 20  ApplicationClusteringImplementations.TemperatureSensorNode1.Processor  "Sensor Modules Status"  ETV
vector 21  ApplicationClusteringImplementations.TemperatureSensorNode1.Processor  Voltage  ETV
vector 22  ApplicationClusteringImplementations.TemperatureSensorNode1.Processor  residualRelative  ETV
vector 23  ApplicationClusteringImplementations.TemperatureSensorNode1.Processor  residualAbs  ETV
vector 31  ApplicationClusteringImplementations.TemperatureSensorNode2.Processor  "power mode"  ETV
vector 32  ApplicationClusteringImplementations.TemperatureSensorNode2.Processor  "Sensor Modules Status"  ETV
vector 33  ApplicationClusteringImplementations.TemperatureSensorNode2.Processor  Voltage  ETV
vector 34  ApplicationClusteringImplementations.TemperatureSensorNode2.Processor  residualRelative  ETV
vector 35  ApplicationClusteringImplementations.TemperatureSensorNode2.Processor  residualAbs  ETV
vector 43  ApplicationClusteringImplementations.TemperatureSensorNode3.Processor  "power mode"  ETV
vector 44  ApplicationClusteringImplementations.TemperatureSensorNode3.Processor  "Sensor Modules Status"  ETV
vector 45  ApplicationClusteringImplementations.TemperatureSensorNode3.Processor  Voltage  ETV
vector 46  ApplicationClusteringImplementations.TemperatureSensorNode3.Processor  residualRelative  ETV
vector 47  ApplicationClusteringImplementations.TemperatureSensorNode3.Processor  residualAbs  ETV
vector 55  ApplicationClusteringImplementations.TemperatureSensorNode4.Processor  "power mode"  ETV
vector 56  ApplicationClusteringImplementations.TemperatureSensorNode4.Processor  "Sensor Modules Status"  ETV
vector 57  ApplicationClusteringImplementations.TemperatureSensorNode4.Processor  Voltage  ETV
vector 58  ApplicationClusteringImplementations.TemperatureSensorNode4.Processor  residualRelative  ETV
vector 59  ApplicationClusteringImplementations.TemperatureSensorNode4.Processor  residualAbs  ETV
vector 67  ApplicationClusteringImplementations.TemperatureSensorNode5.Processor  "power mode"  ETV
vector 68  ApplicationClusteringImplementations.TemperatureSensorNode5.Processor  "Sensor Modules Status"  ETV
vector 69  ApplicationClusteringImplementations.TemperatureSensorNode5.Processor  Voltage  ETV
vector 70  ApplicationClusteringImplementations.TemperatureSensorNode5.Processor  residualRelative  ETV
vector 71  ApplicationClusteringImplementations.TemperatureSensorNode5.Processor  residualAbs  ETV
vector 79  ApplicationClusteringImplementations.TemperatureSensorNode6.Processor  "power mode"  ETV
vector 80  ApplicationClusteringImplementations.TemperatureSensorNode6.Processor  "Sensor Modules Status"  ETV
vector 81  ApplicationClusteringImplementations.TemperatureSensorNode6.Processor  Voltage  ETV
vector 82  ApplicationClusteringImplementations.TemperatureSensorNode6.Processor  residualRelative  ETV
vector 83  ApplicationClusteringImplementations.TemperatureSensorNode6.Processor  residualAbs  ETV
vector 91  ApplicationClusteringImplementations.TemperatureSensorNode7.Processor  "power mode"  ETV
vector 92  ApplicationClusteringImplementations.TemperatureSensorNode7.Processor  "Sensor Modules Status"  ETV
vector 93  ApplicationClusteringImplementations.TemperatureSensorNode7.Processor  Voltage  ETV
vector 94  ApplicationClusteringImplementations.TemperatureSensorNode7.Processor  residualRelative  ETV
vector 95  ApplicationClusteringImplementations.TemperatureSensorNode7.Processor  residualAbs  ETV
vector 103  ApplicationClusteringImplementations.TemperatureSensorNode8.Processor  "power mode"  ETV
vector 104  ApplicationClusteringImplementations.TemperatureSensorNode8.Processor  "Sensor Modules Status"  ETV
vector 105  ApplicationClusteringImplementations.TemperatureSensorNode8.Processor  Voltage  ETV
vector 106  ApplicationClusteringImplementations.TemperatureSensorNode8.Processor  residualRelative  ETV
vector 107  ApplicationClusteringImplementations.TemperatureSensorNode8.Processor  residualAbs  ETV
vector 115  ApplicationClusteringImplementations.TemperatureSensorNode9.Processor  "power mode"  ETV
vector 116  ApplicationClusteringImplementations.TemperatureSensorNode9.Processor  "Sensor Modules Status"  ETV
vector 117  ApplicationClusteringImplementations.TemperatureSensorNode9.Processor  Voltage  ETV
vector 118  ApplicationClusteringImplementations.TemperatureSensorNode9.Processor  residualRelative  ETV
vector 119  ApplicationClusteringImplementations.TemperatureSensorNode9.Processor  residualAbs  ETV
vector 127  ApplicationClusteringImplementations.TemperatureSensorNode10.Processor  "power mode"  ETV
vector 128  ApplicationClusteringImplementations.TemperatureSensorNode10.Processor  "Sensor Modules Status"  ETV
vector 129  ApplicationClusteringImplementations.TemperatureSensorNode10.Processor  Voltage  ETV
vector 130  ApplicationClusteringImplementations.TemperatureSensorNode10.Processor  residualRelative  ETV
vector 131  ApplicationClusteringImplementations.TemperatureSensorNode10.Processor  residualAbs  ETV
vector 139  ApplicationClusteringImplementations.TemperatureSensorNode11.Processor  "power mode"  ETV
vector 140  ApplicationClusteringImplementations.TemperatureSensorNode11.Processor  "Sensor Modules Status"  ETV
vector 141  ApplicationClusteringImplementations.TemperatureSensorNode11.Processor  Voltage  ETV
vector 142  ApplicationClusteringImplementations.TemperatureSensorNode11.Processor  residualRelative  ETV
vector 143  ApplicationClusteringImplementations.TemperatureSensorNode11.Processor  residualAbs  ETV
vector 151  ApplicationClusteringImplementations.TemperatureSensorNode12.Processor  "power mode"  ETV
vector 152  ApplicationClusteringImplementations.TemperatureSensorNode12.Processor  "Sensor Modules Status"  ETV
vector 153  ApplicationClusteringImplementations.TemperatureSensorNode12.Processor  Voltage  ETV
vector 154  ApplicationClusteringImplementations.TemperatureSensorNode12.Processor  residualRelative  ETV
vector 155  ApplicationClusteringImplementations.TemperatureSensorNode12.Processor  residualAbs  ETV
vector 163  ApplicationClusteringImplementations.TemperatureSensorNode13.Processor  "power mode"  ETV
vector 164  ApplicationClusteringImplementations.TemperatureSensorNode13.Processor  "Sensor Modules Status"  ETV
vector 165  ApplicationClusteringImplementations.TemperatureSensorNode13.Processor  Voltage  ETV
vector 166  ApplicationClusteringImplementations.TemperatureSensorNode13.Processor  residualRelative  ETV
vector 167  ApplicationClusteringImplementations.TemperatureSensorNode13.Processor  residualAbs  ETV
vector 175  ApplicationClusteringImplementations.TemperatureSensorNode14.Processor  "power mode"  ETV
vector 176  ApplicationClusteringImplementations.TemperatureSensorNode14.Processor  "Sensor Modules Status"  ETV
vector 177  ApplicationClusteringImplementations.TemperatureSensorNode14.Processor  Voltage  ETV
vector 178  ApplicationClusteringImplementations.TemperatureSensorNode14.Processor  residualRelative  ETV
vector 179  ApplicationClusteringImplementations.TemperatureSensorNode14.Processor  residualAbs  ETV
vector 187  ApplicationClusteringImplementations.TemperatureSensorNode15.Processor  "power mode"  ETV
vector 188  ApplicationClusteringImplementations.TemperatureSensorNode15.Processor  "Sensor Modules Status"  ETV
vector 189  ApplicationClusteringImplementations.TemperatureSensorNode15.Processor  Voltage  ETV
vector 190  ApplicationClusteringImplementations.TemperatureSensorNode15.Processor  residualRelative  ETV
vector 191  ApplicationClusteringImplementations.TemperatureSensorNode15.Processor  residualAbs  ETV
vector 199  ApplicationClusteringImplementations.TemperatureSensorNode16.Processor  "power mode"  ETV
vector 200  ApplicationClusteringImplementations.TemperatureSensorNode16.Processor  "Sensor Modules Status"  ETV
vector 201  ApplicationClusteringImplementations.TemperatureSensorNode16.Processor  Voltage  ETV
vector 202  ApplicationClusteringImplementations.TemperatureSensorNode16.Processor  residualRelative  ETV
vector 203  ApplicationClusteringImplementations.TemperatureSensorNode16.Processor  residualAbs  ETV
vector 211  ApplicationClusteringImplementations.TemperatureSensorNode17.Processor  "power mode"  ETV
vector 212  ApplicationClusteringImplementations.TemperatureSensorNode17.Processor  "Sensor Modules Status"  ETV
vector 213  ApplicationClusteringImplementations.TemperatureSensorNode17.Processor  Voltage  ETV
vector 214  ApplicationClusteringImplementations.TemperatureSensorNode17.Processor  residualRelative  ETV
vector 215  ApplicationClusteringImplementations.TemperatureSensorNode17.Processor  residualAbs  ETV
vector 223  ApplicationClusteringImplementations.TemperatureSensorNode18.Processor  "power mode"  ETV
vector 224  ApplicationClusteringImplementations.TemperatureSensorNode18.Processor  "Sensor Modules Status"  ETV
vector 225  ApplicationClusteringImplementations.TemperatureSensorNode18.Processor  Voltage  ETV
vector 226  ApplicationClusteringImplementations.TemperatureSensorNode18.Processor  residualRelative  ETV
vector 227  ApplicationClusteringImplementations.TemperatureSensorNode18.Processor  residualAbs  ETV
vector 235  ApplicationClusteringImplementations.TemperatureSensorNode19.Processor  "power mode"  ETV
vector 236  ApplicationClusteringImplementations.TemperatureSensorNode19.Processor  "Sensor Modules Status"  ETV
vector 237  ApplicationClusteringImplementations.TemperatureSensorNode19.Processor  Voltage  ETV
vector 238  ApplicationClusteringImplementations.TemperatureSensorNode19.Processor  residualRelative  ETV
vector 239  ApplicationClusteringImplementations.TemperatureSensorNode19.Processor  residualAbs  ETV
vector 247  ApplicationClusteringImplementations.TemperatureSensorNode20.Processor  "power mode"  ETV
vector 248  ApplicationClusteringImplementations.TemperatureSensorNode20.Processor  "Sensor Modules Status"  ETV
vector 249  ApplicationClusteringImplementations.TemperatureSensorNode20.Processor  Voltage  ETV
vector 250  ApplicationClusteringImplementations.TemperatureSensorNode20.Processor  residualRelative  ETV
vector 251  ApplicationClusteringImplementations.TemperatureSensorNode20.Processor  residualAbs  ETV
vector 259  ApplicationClusteringImplementations.TemperatureSensorNode21.Processor  "power mode"  ETV
vector 260  ApplicationClusteringImplementations.TemperatureSensorNode21.Processor  "Sensor Modules Status"  ETV
vector 261  ApplicationClusteringImplementations.TemperatureSensorNode21.Processor  Voltage  ETV
vector 262  ApplicationClusteringImplementations.TemperatureSensorNode21.Processor  residualRelative  ETV
vector 263  ApplicationClusteringImplementations.TemperatureSensorNode21.Processor  residualAbs  ETV
vector 271  ApplicationClusteringImplementations.TemperatureSensorNode22.Processor  "power mode"  ETV
vector 272  ApplicationClusteringImplementations.TemperatureSensorNode22.Processor  "Sensor Modules Status"  ETV
vector 273  ApplicationClusteringImplementations.TemperatureSensorNode22.Processor  Voltage  ETV
vector 274  ApplicationClusteringImplementations.TemperatureSensorNode22.Processor  residualRelative  ETV
vector 275  ApplicationClusteringImplementations.TemperatureSensorNode22.Processor  residualAbs  ETV
vector 283  ApplicationClusteringImplementations.TemperatureSensorNode23.Processor  "power mode"  ETV
vector 284  ApplicationClusteringImplementations.TemperatureSensorNode23.Processor  "Sensor Modules Status"  ETV
vector 285  ApplicationClusteringImplementations.TemperatureSensorNode23.Processor  Voltage  ETV
vector 286  ApplicationClusteringImplementations.TemperatureSensorNode23.Processor  residualRelative  ETV
vector 287  ApplicationClusteringImplementations.TemperatureSensorNode23.Processor  residualAbs  ETV
vector 295  ApplicationClusteringImplementations.TemperatureSensorNode24.Processor  "power mode"  ETV
vector 296  ApplicationClusteringImplementations.TemperatureSensorNode24.Processor  "Sensor Modules Status"  ETV
vector 297  ApplicationClusteringImplementations.TemperatureSensorNode24.Processor  Voltage  ETV
vector 298  ApplicationClusteringImplementations.TemperatureSensorNode24.Processor  residualRelative  ETV
vector 299  ApplicationClusteringImplementations.TemperatureSensorNode24.Processor  residualAbs  ETV
vector 307  ApplicationClusteringImplementations.TemperatureSensorNode25.Processor  "power mode"  ETV
vector 308  ApplicationClusteringImplementations.TemperatureSensorNode25.Processor  "Sensor Modules Status"  ETV
vector 309  ApplicationClusteringImplementations.TemperatureSensorNode25.Processor  Voltage  ETV
vector 310  ApplicationClusteringImplementations.TemperatureSensorNode25.Processor  residualRelative  ETV
vector 311  ApplicationClusteringImplementations.TemperatureSensorNode25.Processor  residualAbs  ETV
vector 319  ApplicationClusteringImplementations.TemperatureSensorNode26.Processor  "power mode"  ETV
vector 320  ApplicationClusteringImplementations.TemperatureSensorNode26.Processor  "Sensor Modules Status"  ETV
vector 321  ApplicationClusteringImplementations.TemperatureSensorNode26.Processor  Voltage  ETV
vector 322  ApplicationClusteringImplementations.TemperatureSensorNode26.Processor  residualRelative  ETV
vector 323  ApplicationClusteringImplementations.TemperatureSensorNode26.Processor  residualAbs  ETV
vector 331  ApplicationClusteringImplementations.TemperatureSensorNode27.Processor  "power mode"  ETV
vector 332  ApplicationClusteringImplementations.TemperatureSensorNode27.Processor  "Sensor Modules Status"  ETV
vector 333  ApplicationClusteringImplementations.TemperatureSensorNode27.Processor  Voltage  ETV
vector 334  ApplicationClusteringImplementations.TemperatureSensorNode27.Processor  residualRelative  ETV
vector 335  ApplicationClusteringImplementations.TemperatureSensorNode27.Processor  residualAbs  ETV
vector 343  ApplicationClusteringImplementations.TemperatureSensorNode28.Processor  "power mode"  ETV
vector 344  ApplicationClusteringImplementations.TemperatureSensorNode28.Processor  "Sensor Modules Status"  ETV
vector 345  ApplicationClusteringImplementations.TemperatureSensorNode28.Processor  Voltage  ETV
vector 346  ApplicationClusteringImplementations.TemperatureSensorNode28.Processor  residualRelative  ETV
vector 347  ApplicationClusteringImplementations.TemperatureSensorNode28.Processor  residualAbs  ETV
vector 355  ApplicationClusteringImplementations.TemperatureSensorNode29.Processor  "power mode"  ETV
vector 356  ApplicationClusteringImplementations.TemperatureSensorNode29.Processor  "Sensor Modules Status"  ETV
vector 357  ApplicationClusteringImplementations.TemperatureSensorNode29.Processor  Voltage  ETV
vector 358  ApplicationClusteringImplementations.TemperatureSensorNode29.Processor  residualRelative  ETV
vector 359  ApplicationClusteringImplementations.TemperatureSensorNode29.Processor  residualAbs  ETV
vector 367  ApplicationClusteringImplementations.TemperatureSensorNode30.Processor  "power mode"  ETV
vector 368  ApplicationClusteringImplementations.TemperatureSensorNode30.Processor  "Sensor Modules Status"  ETV
vector 369  ApplicationClusteringImplementations.TemperatureSensorNode30.Processor  Voltage  ETV
vector 370  ApplicationClusteringImplementations.TemperatureSensorNode30.Processor  residualRelative  ETV
vector 371  ApplicationClusteringImplementations.TemperatureSensorNode30.Processor  residualAbs  ETV
vector 379  ApplicationClusteringImplementations.TemperatureSensorNode31.Processor  "power mode"  ETV
vector 380  ApplicationClusteringImplementations.TemperatureSensorNode31.Processor  "Sensor Modules Status"  ETV
vector 381  ApplicationClusteringImplementations.TemperatureSensorNode31.Processor  Voltage  ETV
vector 382  ApplicationClusteringImplementations.TemperatureSensorNode31.Processor  residualRelative  ETV
vector 383  ApplicationClusteringImplementations.TemperatureSensorNode31.Processor  residualAbs  ETV
vector 391  ApplicationClusteringImplementations.TemperatureSensorNode32.Processor  "power mode"  ETV
vector 392  ApplicationClusteringImplementations.TemperatureSensorNode32.Processor  "Sensor Modules Status"  ETV
vector 393  ApplicationClusteringImplementations.TemperatureSensorNode32.Processor  Voltage  ETV
vector 394  ApplicationClusteringImplementations.TemperatureSensorNode32.Processor  residualRelative  ETV
vector 395  ApplicationClusteringImplementations.TemperatureSensorNode32.Processor  residualAbs  ETV
vector 403  ApplicationClusteringImplementations.TemperatureSensorNode33.Processor  "power mode"  ETV
vector 404  ApplicationClusteringImplementations.TemperatureSensorNode33.Processor  "Sensor Modules Status"  ETV
vector 405  ApplicationClusteringImplementations.TemperatureSensorNode33.Processor  Voltage  ETV
vector 406  ApplicationClusteringImplementations.TemperatureSensorNode33.Processor  residualRelative  ETV
vector 407  ApplicationClusteringImplementations.TemperatureSensorNode33.Processor  residualAbs  ETV
vector 415  ApplicationClusteringImplementations.TemperatureSensorNode34.Processor  "power mode"  ETV
vector 416  ApplicationClusteringImplementations.TemperatureSensorNode34.Processor  "Sensor Modules Status"  ETV
vector 417  ApplicationClusteringImplementations.TemperatureSensorNode34.Processor  Voltage  ETV
vector 418  ApplicationClusteringImplementations.TemperatureSensorNode34.Processor  residualRelative  ETV
vector 419  ApplicationClusteringImplementations.TemperatureSensorNode34.Processor  residualAbs  ETV
vector 427  ApplicationClusteringImplementations.TemperatureSensorNode35.Processor  "power mode"  ETV
vector 428  ApplicationClusteringImplementations.TemperatureSensorNode35.Processor  "Sensor Modules Status"  ETV
vector 429  ApplicationClusteringImplementations.TemperatureSensorNode35.Processor  Voltage  ETV
vector 430  ApplicationClusteringImplementations.TemperatureSensorNode35.Processor  residualRelative  ETV
vector 431  ApplicationClusteringImplementations.TemperatureSensorNode35.Processor  residualAbs  ETV
vector 439  ApplicationClusteringImplementations.TemperatureSensorNode36.Processor  "power mode"  ETV
vector 440  ApplicationClusteringImplementations.TemperatureSensorNode36.Processor  "Sensor Modules Status"  ETV
vector 441  ApplicationClusteringImplementations.TemperatureSensorNode36.Processor  Voltage  ETV
vector 442  ApplicationClusteringImplementations.TemperatureSensorNode36.Processor  residualRelative  ETV
vector 443  ApplicationClusteringImplementations.TemperatureSensorNode36.Processor  residualAbs  ETV
vector 451  ApplicationClusteringImplementations.TemperatureSensorNode37.Processor  "power mode"  ETV
vector 452  ApplicationClusteringImplementations.TemperatureSensorNode37.Processor  "Sensor Modules Status"  ETV
vector 453  ApplicationClusteringImplementations.TemperatureSensorNode37.Processor  Voltage  ETV
vector 454  ApplicationClusteringImplementations.TemperatureSensorNode37.Processor  residualRelative  ETV
vector 455  ApplicationClusteringImplementations.TemperatureSensorNode37.Processor  residualAbs  ETV
vector 456  ApplicationClusteringImplementations.TemperatureSensorNode0.TemperatureSensor.SensingUnit  "Energy Consumptions"  ETV
vector 457  ApplicationClusteringImplementations.TemperatureSensorNode0.TemperatureSensor.SensingUnit  "Current use over time"  ETV
vector 458  ApplicationClusteringImplementations.TemperatureSensorNode0.TemperatureSensor.SignalConditioner  "Energy Consumptions"  ETV
vector 459  ApplicationClusteringImplementations.TemperatureSensorNode0.TemperatureSensor.SignalConditioner  "Current use over time"  ETV
vector 460  ApplicationClusteringImplementations.TemperatureSensorNode0.TemperatureSensor.SignalConverter  "Energy Consumptions"  ETV
vector 461  ApplicationClusteringImplementations.TemperatureSensorNode0.TemperatureSensor.SignalConverter  "Current use over time"  ETV
vector 462  ApplicationClusteringImplementations.TemperatureSensorNode0.TemperatureSensor.Transducer  "Energy Consumptions"  ETV
vector 463  ApplicationClusteringImplementations.TemperatureSensorNode0.TemperatureSensor.Transducer  "Current use over time"  ETV
vector 464  ApplicationClusteringImplementations.TemperatureSensorNode0.Memory  "Energy Consumptions"  ETV
vector 465  ApplicationClusteringImplementations.TemperatureSensorNode0.Memory  "Current use over time"  ETV
vector 473  ApplicationClusteringImplementations.TemperatureSensorNode1.TemperatureSensor.SensingUnit  "Energy Consumptions"  ETV
vector 474  ApplicationClusteringImplementations.TemperatureSensorNode1.TemperatureSensor.SensingUnit  "Current use over time"  ETV
vector 475  ApplicationClusteringImplementations.TemperatureSensorNode1.TemperatureSensor.SignalConditioner  "Energy Consumptions"  ETV
vector 476  ApplicationClusteringImplementations.TemperatureSensorNode1.TemperatureSensor.SignalConditioner  "Current use over time"  ETV
vector 477  ApplicationClusteringImplementations.TemperatureSensorNode1.TemperatureSensor.SignalConverter  "Energy Consumptions"  ETV
vector 478  ApplicationClusteringImplementations.TemperatureSensorNode1.TemperatureSensor.SignalConverter  "Current use over time"  ETV
vector 479  ApplicationClusteringImplementations.TemperatureSensorNode1.TemperatureSensor.Transducer  "Energy Consumptions"  ETV
vector 480  ApplicationClusteringImplementations.TemperatureSensorNode1.TemperatureSensor.Transducer  "Current use over time"  ETV
vector 481  ApplicationClusteringImplementations.TemperatureSensorNode1.Memory  "Energy Consumptions"  ETV
vector 482  ApplicationClusteringImplementations.TemperatureSensorNode1.Memory  "Current use over time"  ETV
vector 490  ApplicationClusteringImplementations.TemperatureSensorNode2.TemperatureSensor.SensingUnit  "Energy Consumptions"  ETV
vector 491  ApplicationClusteringImplementations.TemperatureSensorNode2.TemperatureSensor.SensingUnit  "Current use over time"  ETV
vector 492  ApplicationClusteringImplementations.TemperatureSensorNode2.TemperatureSensor.SignalConditioner  "Energy Consumptions"  ETV
vector 493  ApplicationClusteringImplementations.TemperatureSensorNode2.TemperatureSensor.SignalConditioner  "Current use over time"  ETV
vector 494  ApplicationClusteringImplementations.TemperatureSensorNode2.TemperatureSensor.SignalConverter  "Energy Consumptions"  ETV
vector 495  ApplicationClusteringImplementations.TemperatureSensorNode2.TemperatureSensor.SignalConverter  "Current use over time"  ETV
vector 496  ApplicationClusteringImplementations.TemperatureSensorNode2.TemperatureSensor.Transducer  "Energy Consumptions"  ETV
vector 497  ApplicationClusteringImplementations.TemperatureSensorNode2.TemperatureSensor.Transducer  "Current use over time"  ETV
vector 498  ApplicationClusteringImplementations.TemperatureSensorNode2.Memory  "Energy Consumptions"  ETV
vector 499  ApplicationClusteringImplementations.TemperatureSensorNode2.Memory  "Current use over time"  ETV
vector 507  ApplicationClusteringImplementations.TemperatureSensorNode3.TemperatureSensor.SensingUnit  "Energy Consumptions"  ETV
vector 508  ApplicationClusteringImplementations.TemperatureSensorNode3.TemperatureSensor.SensingUnit  "Current use over time"  ETV
vector 509  ApplicationClusteringImplementations.TemperatureSensorNode3.TemperatureSensor.SignalConditioner  "Energy Consumptions"  ETV
vector 510  ApplicationClusteringImplementations.TemperatureSensorNode3.TemperatureSensor.SignalConditioner  "Current use over time"  ETV
vector 511  ApplicationClusteringImplementations.TemperatureSensorNode3.TemperatureSensor.SignalConverter  "Energy Consumptions"  ETV
vector 512  ApplicationClusteringImplementations.TemperatureSensorNode3.TemperatureSensor.SignalConverter  "Current use over time"  ETV
vector 513  ApplicationClusteringImplementations.TemperatureSensorNode3.TemperatureSensor.Transducer  "Energy Consumptions"  ETV
vector 514  ApplicationClusteringImplementations.TemperatureSensorNode3.TemperatureSensor.Transducer  "Current use over time"  ETV
vector 515  ApplicationClusteringImplementations.TemperatureSensorNode3.Memory  "Energy Consumptions"  ETV
vector 516  ApplicationClusteringImplementations.TemperatureSensorNode3.Memory  "Current use over time"  ETV
vector 524  ApplicationClusteringImplementations.TemperatureSensorNode4.TemperatureSensor.SensingUnit  "Energy Consumptions"  ETV
vector 525  ApplicationClusteringImplementations.TemperatureSensorNode4.TemperatureSensor.SensingUnit  "Current use over time"  ETV
vector 526  ApplicationClusteringImplementations.TemperatureSensorNode4.TemperatureSensor.SignalConditioner  "Energy Consumptions"  ETV
vector 527  ApplicationClusteringImplementations.TemperatureSensorNode4.TemperatureSensor.SignalConditioner  "Current use over time"  ETV
vector 528  ApplicationClusteringImplementations.TemperatureSensorNode4.TemperatureSensor.SignalConverter  "Energy Consumptions"  ETV
vector 529  ApplicationClusteringImplementations.TemperatureSensorNode4.TemperatureSensor.SignalConverter  "Current use over time"  ETV
vector 530  ApplicationClusteringImplementations.TemperatureSensorNode4.TemperatureSensor.Transducer  "Energy Consumptions"  ETV
vector 531  ApplicationClusteringImplementations.TemperatureSensorNode4.TemperatureSensor.Transducer  "Current use over time"  ETV
vector 532  ApplicationClusteringImplementations.TemperatureSensorNode4.Memory  "Energy Consumptions"  ETV
vector 533  ApplicationClusteringImplementations.TemperatureSensorNode4.Memory  "Current use over time"  ETV
vector 541  ApplicationClusteringImplementations.TemperatureSensorNode5.TemperatureSensor.SensingUnit  "Energy Consumptions"  ETV
vector 542  ApplicationClusteringImplementations.TemperatureSensorNode5.TemperatureSensor.SensingUnit  "Current use over time"  ETV
vector 543  ApplicationClusteringImplementations.TemperatureSensorNode5.TemperatureSensor.SignalConditioner  "Energy Consumptions"  ETV
vector 544  ApplicationClusteringImplementations.TemperatureSensorNode5.TemperatureSensor.SignalConditioner  "Current use over time"  ETV
vector 545  ApplicationClusteringImplementations.TemperatureSensorNode5.TemperatureSensor.SignalConverter  "Energy Consumptions"  ETV
vector 546  ApplicationClusteringImplementations.TemperatureSensorNode5.TemperatureSensor.SignalConverter  "Current use over time"  ETV
vector 547  ApplicationClusteringImplementations.TemperatureSensorNode5.TemperatureSensor.Transducer  "Energy Consumptions"  ETV
vector 548  ApplicationClusteringImplementations.TemperatureSensorNode5.TemperatureSensor.Transducer  "Current use over time"  ETV
vector 549  ApplicationClusteringImplementations.TemperatureSensorNode5.Memory  "Energy Consumptions"  ETV
vector 550  ApplicationClusteringImplementations.TemperatureSensorNode5.Memory  "Current use over time"  ETV
vector 558  ApplicationClusteringImplementations.TemperatureSensorNode6.TemperatureSensor.SensingUnit  "Energy Consumptions"  ETV
vector 559  ApplicationClusteringImplementations.TemperatureSensorNode6.TemperatureSensor.SensingUnit  "Current use over time"  ETV
vector 560  ApplicationClusteringImplementations.TemperatureSensorNode6.TemperatureSensor.SignalConditioner  "Energy Consumptions"  ETV
vector 561  ApplicationClusteringImplementations.TemperatureSensorNode6.TemperatureSensor.SignalConditioner  "Current use over time"  ETV
vector 562  ApplicationClusteringImplementations.TemperatureSensorNode6.TemperatureSensor.SignalConverter  "Energy Consumptions"  ETV
vector 563  ApplicationClusteringImplementations.TemperatureSensorNode6.TemperatureSensor.SignalConverter  "Current use over time"  ETV
vector 564  ApplicationClusteringImplementations.TemperatureSensorNode6.TemperatureSensor.Transducer  "Energy Consumptions"  ETV
vector 565  ApplicationClusteringImplementations.TemperatureSensorNode6.TemperatureSensor.Transducer  "Current use over time"  ETV
vector 566  ApplicationClusteringImplementations.TemperatureSensorNode6.Memory  "Energy Consumptions"  ETV
vector 567  ApplicationClusteringImplementations.TemperatureSensorNode6.Memory  "Current use over time"  ETV
vector 575  ApplicationClusteringImplementations.TemperatureSensorNode7.TemperatureSensor.SensingUnit  "Energy Consumptions"  ETV
vector 576  ApplicationClusteringImplementations.TemperatureSensorNode7.TemperatureSensor.SensingUnit  "Current use over time"  ETV
vector 577  ApplicationClusteringImplementations.TemperatureSensorNode7.TemperatureSensor.SignalConditioner  "Energy Consumptions"  ETV
vector 578  ApplicationClusteringImplementations.TemperatureSensorNode7.TemperatureSensor.SignalConditioner  "Current use over time"  ETV
vector 579  ApplicationClusteringImplementations.TemperatureSensorNode7.TemperatureSensor.SignalConverter  "Energy Consumptions"  ETV
vector 580  ApplicationClusteringImplementations.TemperatureSensorNode7.TemperatureSensor.SignalConverter  "Current use over time"  ETV
vector 581  ApplicationClusteringImplementations.TemperatureSensorNode7.TemperatureSensor.Transducer  "Energy Consumptions"  ETV