                                                                
version 2
run General-0-20151208-18:15:03-8386
attr configname General
attr datetime 20151208-18:15:03
attr experiment General
attr inifile omnetpp.ini
attr iterationvars ""
attr iterationvars2 $repetition=0
attr measurement ""
attr network ApplicationClusteringImplementations
attr processid 8386
attr repetition 0
attr replication #0
attr resultdir results
attr runnumber 0
attr seedset 0

vector 7  ApplicationClusteringImplementations.Node9.Processor  "power mode"  ETV
vector 8  ApplicationClusteringImplementations.Node9.Processor  "Sensor Modules Status"  ETV
vector 9  ApplicationClusteringImplementations.Node9.Processor  Voltage  ETV
vector 10  ApplicationClusteringImplementations.Node9.Processor  residualRelative  ETV
vector 11  ApplicationClusteringImplementations.Node9.Processor  residualAbs  ETV
vector 19  ApplicationClusteringImplementations.Node10.Processor  "power mode"  ETV
vector 20  ApplicationClusteringImplementations.Node10.Processor  "Sensor Modules Status"  ETV
vector 21  ApplicationClusteringImplementations.Node10.Processor  Voltage  ETV
vector 22  ApplicationClusteringImplementations.Node10.Processor  residualRelative  ETV
vector 23  ApplicationClusteringImplementations.Node10.Processor  residualAbs  ETV
vector 31  ApplicationClusteringImplementations.Node11.Processor  "power mode"  ETV
vector 32  ApplicationClusteringImplementations.Node11.Processor  "Sensor Modules Status"  ETV
vector 33  ApplicationClusteringImplementations.Node11.Processor  Voltage  ETV
vector 34  ApplicationClusteringImplementations.Node11.Processor  residualRelative  ETV
vector 35  ApplicationClusteringImplementations.Node11.Processor  residualAbs  ETV
vector 43  ApplicationClusteringImplementations.Node12.Processor  "power mode"  ETV
vector 44  ApplicationClusteringImplementations.Node12.Processor  "Sensor Modules Status"  ETV
vector 45  ApplicationClusteringImplementations.Node12.Processor  Voltage  ETV
vector 46  ApplicationClusteringImplementations.Node12.Processor  residualRelative  ETV
vector 47  ApplicationClusteringImplementations.Node12.Processor  residualAbs  ETV
vector 55  ApplicationClusteringImplementations.Node13.Processor  "power mode"  ETV
vector 56  ApplicationClusteringImplementations.Node13.Processor  "Sensor Modules Status"  ETV
vector 57  ApplicationClusteringImplementations.Node13.Processor  Voltage  ETV
vector 58  ApplicationClusteringImplementations.Node13.Processor  residualRelative  ETV
vector 59  ApplicationClusteringImplementations.Node13.Processor  residualAbs  ETV
vector 60  ApplicationClusteringImplementations.Node9.TemperatureSensor.SensingUnit  "Energy Consumptions"  ETV
vector 61  ApplicationClusteringImplementations.Node9.TemperatureSensor.SensingUnit  "Current use over time"  ETV
vector 62  ApplicationClusteringImplementations.Node9.TemperatureSensor.SignalConditioner  "Energy Consumptions"  ETV
vector 63  ApplicationClusteringImplementations.Node9.TemperatureSensor.SignalConditioner  "Current use over time"  ETV
vector 64  ApplicationClusteringImplementations.Node9.TemperatureSensor.SignalConverter  "Energy Consumptions"  ETV
vector 65  ApplicationClusteringImplementations.Node9.TemperatureSensor.SignalConverter  "Current use over time"  ETV
vector 66  ApplicationClusteringImplementations.Node9.TemperatureSensor.Transducer  "Energy Consumptions"  ETV
vector 67  ApplicationClusteringImplementations.Node9.TemperatureSensor.Transducer  "Current use over time"  ETV
vector 68  ApplicationClusteringImplementations.Node9.Memory  "Energy Consumptions"  ETV
vector 69  ApplicationClusteringImplementations.Node9.Memory  "Current use over time"  ETV
vector 77  ApplicationClusteringImplementations.Node10.TemperatureSensor.SensingUnit  "Energy Consumptions"  ETV
vector 78  ApplicationClusteringImplementations.Node10.TemperatureSensor.SensingUnit  "Current use over time"  ETV
vector 79  ApplicationClusteringImplementations.Node10.TemperatureSensor.SignalConditioner  "Energy Consumptions"  ETV
vector 80  ApplicationClusteringImplementations.Node1