file 20269 1447675677                                           
version 2
run General-0-20151116-13:06:21-17492
attr configname General
attr datetime 20151116-13:06:21
attr experiment General
attr inifile omnetpp.ini
attr iterationvars ""
attr iterationvars2 $repetition=0
attr measurement ""
attr network ApplicationClusteringImplementations
attr processid 17492
attr repetition 0
attr replication #0
attr resultdir results
attr runnumber 0
attr seedset 0

vector 7  ApplicationClusteringImplementations.TemperatureSensorNode0.Processor  "power mode"  ETV
vector 8  ApplicationClusteringImplementations.TemperatureSensorNode0.Processor  "Sensor Modules Status"  ETV
vector 9  ApplicationClusteringImplementations.TemperatureSensorNode0.Processor  Voltage  ETV
vector 10  ApplicationClusteringImplementations.TemperatureSensorNode0.Processor  residualRelative  ETV
vector 11  ApplicationClusteringImplementations.TemperatureSensorNode0.Processor  residualAbs  ETV
vector 19  ApplicationClusteringImplementations.TemperatureSensorNode1.Processor  "power mode"  ETV
vector 20  ApplicationClusteringImplementations.TemperatureSensorNode1.Processor  "Sensor Modules Status"  ETV
vector 21  ApplicationClusteringImplementations.TemperatureSensorNode1.Processor  Voltage  ETV
vector 22  ApplicationClusteringImplementations.TemperatureSensorNode1.Processor  residualRelative  ETV
vector 23  ApplicationClusteringImplementations.TemperatureSensorNode1.Processor  residualAbs  ETV
vector 31  ApplicationClusteringImplementations.TemperatureSensorNode2.Processor  "power mode"  ETV
vector 32  ApplicationClusteringImplementations.TemperatureSensorNode2.Processor  "Sensor Modules Status"  ETV
vector 33  ApplicationClusteringImplementations.TemperatureSensorNode2.Processor  Voltage  ETV
vector 34  ApplicationClusteringImplementations.TemperatureSensorNode2.Processor  residualRelative  ETV
vector 35  ApplicationClusteringImplementations.TemperatureSensorNode2.Processor  residualAbs  ETV
vector 43  ApplicationClusteringImplementations.TemperatureSensorNode3.Processor  "power mode"  ETV
vector 44  ApplicationClusteringImplementations.TemperatureSensorNode3.Processor  "Sensor Modules Status"  ETV
vector 45  ApplicationClusteringImplementations.TemperatureSensorNode3.Processor  Voltage  ETV
vector 46  ApplicationClusteringImplementations.TemperatureSensorNode3.Processor  residualRelative  ETV
vector 47  ApplicationClusteringImplementations.TemperatureSensorNode3.Processor  residualAbs  ETV
vector 55  ApplicationClusteringImplementations.TemperatureSensorNode4.Processor  "power mode"  ETV
vector 56  ApplicationClusteringImplementations.TemperatureSensorNode4.Processor  "Sensor Modules Status"  ETV
vector 57  ApplicationClusteringImplementations.TemperatureSensorNode4.Processor  Voltage  ETV
vector 58  ApplicationClusteringImplementations.TemperatureSensorNode4.Processor  residualRelative  ETV
vector 59  ApplicationClusteringImplementations.TemperatureSensorNode4.Processor  residualAbs  ETV
vector 67  ApplicationClusteringImplementations.TemperatureSensorNode5.Processor  "power mode"  ETV
vector 68  ApplicationClusteringImplementations.TemperatureSensorNode5.Processor  "Sensor Modules Status"  ETV
vector 69  ApplicationClusteringImplementations.TemperatureSensorNode5.Processor  Voltage  ETV
vector 70  ApplicationClusteringImplementations.TemperatureSensorNode5.Processor  residualRelative  ETV
vector 71  ApplicationClusteringImplementations.TemperatureSensorNode5.Processor  residualAbs  ETV
vector 79  ApplicationClusteringImplementations.TemperatureSensorNode6.Processor  "power mode"  ETV
vector 80  ApplicationClusteringImplementations.TemperatureSensorNode6.Processor  "Sensor Modules Status"  ETV
vector 81  ApplicationClusteringImplementations.TemperatureSensorNode6.Processor  Voltage  ETV
vector 82  ApplicationClusteringImplementations.TemperatureSensorNode6.Processor  residualRelative  ETV
vector 83  ApplicationClusteringImplementations.TemperatureSensorNode6.Processor  residualAbs  ETV
vector 91  ApplicationClusteringImplementations.TemperatureSensorNode7.Processor  "power mode"  ETV
vector 92  ApplicationClusteringImplementations.TemperatureSensorNode7.Processor  "Sensor Modules Status"  ETV
vector 93  ApplicationClusteringImplementations.TemperatureSensorNode7.Processor  Voltage  ETV
vector 94  ApplicationClusteringImplementations.TemperatureSensorNode7.Processor  residualRelative  ETV
vector 95  ApplicationClusteringImplementations.TemperatureSensorNode7.Processor  residualAbs  ETV
vector 103  ApplicationClusteringImplementations.TemperatureSensorNode8.Processor  "power mode"  ETV
vector 104  ApplicationClusteringImplementations.TemperatureSensorNode8.Processor  "Sensor Modules Status"  ETV
vector 105  ApplicationClusteringImplementations.TemperatureSensorNode8.Processor  Voltage  ETV
vector 106  ApplicationClusteringImplementations.TemperatureSensorNode8.Processor  residualRelative  ETV
vector 107  ApplicationClusteringImplementations.TemperatureSensorNode8.Processor  residualAbs  ETV
vector 115  ApplicationClusteringImplementations.TemperatureSensorNode9.Processor  "power mode"  ETV
vector 116  ApplicationClusteringImplementations.TemperatureSensorNode9.Processor  "Sensor Modules Status"  ETV
vector 117  ApplicationClusteringImplementations.TemperatureSensorNode9.Processor  Voltage  ETV
vector 118  ApplicationClusteringImplementations.TemperatureSensorNode9.Processor  residualRelative  ETV
vector 119  ApplicationClusteringImplementations.TemperatureSensorNode9.Processor  residualAbs  ETV
vector 127  ApplicationClusteringImplementations.TemperatureSensorNode0.TemperatureSensor.SensingUnit  "Energy Consumptions"  ETV
vector 128  ApplicationClusteringImplementations.TemperatureSensorNode0.TemperatureSensor.SensingUnit  "Current use over time"  ETV
vector 129  ApplicationClusteringImplementations.TemperatureSensorNode0.TemperatureSensor.SignalConditioner  "Energy Consumptions"  ETV
vector 130  ApplicationClusteringImplementations.TemperatureSensorNode0.TemperatureSensor.SignalConditioner  "Current use over time"  ETV
vector 131  ApplicationClusteringImplementations.TemperatureSensorNode0.TemperatureSensor.SignalConverter  "Energy Consumptions"  ETV
vector 132  ApplicationClusteringImplementations.TemperatureSensorNode0.TemperatureSensor.SignalConverter  "Current use over time"  ETV
vector 133  ApplicationClusteringImplementations.TemperatureSensorNode0.TemperatureSensor.Transducer  "Energy Consumptions"  ETV
vector 134  ApplicationClusteringImplementations.TemperatureSensorNode0.TemperatureSensor.Transducer  "Current use over time"  ETV
vector 135  ApplicationClusteringImplementations.TemperatureSensorNode0.Memory  "Energy Consumptions"  ETV
vector 136  ApplicationClusteringImplementations.TemperatureSensorNode0.Memory  "Current use over time"  ETV
vector 144  ApplicationClusteringImplementations.TemperatureSensorNode1.TemperatureSensor.SensingUnit  "Energy Consumptions"  ETV
vector 145  ApplicationClusteringImplementations.TemperatureSensorNode1.TemperatureSensor.SensingUnit  "Current use over time"  ETV
vector 146  ApplicationClusteringImplementations.TemperatureSensorNode1.TemperatureSensor.SignalConditioner  "Energy Consumptions"  ETV
vector 147  ApplicationClusteringImplementations.TemperatureSensorNode1.TemperatureSensor.SignalConditioner  "Current use over time"  ETV
vector 148  ApplicationClusteringImplementations.TemperatureSensorNode1.TemperatureSensor.SignalConverter  "Energy Consumptions"  ETV
vector 149  ApplicationClusteringImplementations.TemperatureSensorNode1.TemperatureSensor.SignalConverter  "Current use over time"  ETV
vector 150  ApplicationClusteringImplementations.TemperatureSensorNode1.TemperatureSensor.Transducer  "Energy Consumptions"  ETV
vector 151  ApplicationClusteringImplementations.TemperatureSensorNode1.TemperatureSensor.Transducer  "Current use over time"  ETV
vector 152  ApplicationClusteringImplementations.TemperatureSensorNode1.Memory  "Energy Consumptions"  ETV
vector 153  ApplicationClusteringImplementations.TemperatureSensorNode1.Memory  "Current use over time"  ETV
vector 161  ApplicationClusteringImplementations.TemperatureSensorNode2.TemperatureSensor.SensingUnit  "Energy Consumptions"  ETV
vector 162  ApplicationClusteringImplementations.TemperatureSensorNode2.TemperatureSensor.SensingUnit  "Current use over time"  ETV
vector 163  ApplicationClusteringImplementations.TemperatureSensorNode2.TemperatureSensor.SignalConditioner  "Energy Consumptions"  ETV
vector 164  ApplicationClusteringImplementations.TemperatureSensorNode2.TemperatureSensor.SignalConditioner  "Current use over time"  ETV
vector 165  ApplicationClusteringImplementations.TemperatureSensorNode2.TemperatureSensor.SignalConverter  "Energy Consumptions"  ETV
vector 166  ApplicationClusteringImplementations.TemperatureSensorNode2.TemperatureSensor.SignalConverter  "Current use over time"  ETV
vector 167  ApplicationClusteringImplementations.TemperatureSensorNode2.TemperatureSensor.Transducer  "Energy Consumptions"  ETV
vector 168  ApplicationClusteringImplementations.TemperatureSensorNode2.TemperatureSensor.Transducer  "Current use over time"  ETV
vector 169  ApplicationClusteringImplementations.TemperatureSensorNode2.Memory  "Energy Consumptions"  ETV
vector 170  ApplicationClusteringImplementations.TemperatureSensorNode2.Memory  "Current use over time"  ETV
vector 178  ApplicationClusteringImplementations.TemperatureSensorNode3.TemperatureSensor.SensingUnit  "Energy Consumptions"  ETV
vector 179  ApplicationClusteringImplementations.TemperatureSensorNode3.TemperatureSensor.SensingUnit  "Current use over time"  ETV
vector 180  ApplicationClusteringImplementations.TemperatureSensorNode3.TemperatureSensor.SignalConditioner  "Energy Consumptions"  ETV
vector 181  ApplicationClusteringImplementations.TemperatureSensorNode3.TemperatureSensor.SignalConditioner  "Current use over time"  ETV
vector 182  ApplicationClusteringImplementations.TemperatureSensorNode3.TemperatureSensor.SignalConverter  "Energy Consumptions"  ETV
vector 183  ApplicationClusteringImplementations.TemperatureSensorNode3.TemperatureSensor.SignalConverter  "Current use over time"  ETV
vector 184  ApplicationClusteringImplementations.TemperatureSensorNode3.TemperatureSensor.Transducer  "Energy Consumptions"  ETV
vector 185  ApplicationClusteringImplementations.TemperatureSensorNode3.TemperatureSensor.Transducer  "Current use over time"  ETV
vector 186  ApplicationClusteringImplementations.TemperatureSensorNode3.Memory  "Energy Consumptions"  ETV
vector 187  ApplicationClusteringImplementations.TemperatureSensorNode3.Memory  "Current use over time"  ETV
vector 195  ApplicationClusteringImplementations.TemperatureSensorNode4.TemperatureSensor.SensingUnit  "Energy Consumptions"  ETV
vector 196  ApplicationClusteringImplementations.TemperatureSensorNode4.TemperatureSensor.SensingUnit  "Current use over time"  ETV
vector 197  ApplicationClusteringImplementations.TemperatureSensorNode4.TemperatureSensor.SignalConditioner  "Energy Consumptions"  ETV
vector 198  ApplicationClusteringImplementations.TemperatureSensorNode4.TemperatureSensor.SignalConditioner  "Current use over time"  ETV
vector 199  ApplicationClusteringImplementations.TemperatureSensorNode4.TemperatureSensor.SignalConverter  "Energy Consumptions"  ETV
vector 200  ApplicationClusteringImplementations.TemperatureSensorNode4.TemperatureSensor.SignalConverter  "Current use over time"  ETV
vector 201  ApplicationClusteringImplementations.TemperatureSensorNode4.TemperatureSensor.Transducer  "Energy Consumptions"  ETV
vector 202  ApplicationClusteringImplementations.TemperatureSensorNode4.TemperatureSensor.Transducer  "Current use over time"  ETV
vector 203  ApplicationClusteringImplementations.TemperatureSensorNode4.Memory  "Energy Consumptions"  ETV
vector 204  ApplicationClusteringImplementations.TemperatureSensorNode4.Memory  "Current use over time"  ETV
vector 212  ApplicationClusteringImplementations.TemperatureSensorNode5.TemperatureSensor.SensingUnit  "Energy Consumptions"  ETV
vector 213  ApplicationClusteringImplementations.TemperatureSensorNode5.TemperatureSensor.SensingUnit  "Current use over time"  ETV
vector 214  ApplicationClusteringImplementations.TemperatureSensorNode5.TemperatureSensor.SignalConditioner  "Energy Consumptions"  ETV
vector 215  ApplicationClusteringImplementations.TemperatureSensorNode5.TemperatureSensor.SignalConditioner  "Current use over time"  ETV
vector 216  ApplicationClusteringImplementations.TemperatureSensorNode5.TemperatureSensor.SignalConverter  "Energy Consumptions"  ETV
vector 217  ApplicationClusteringImplementations.TemperatureSensorNode5.TemperatureSensor.SignalConverter  "Current use over time"  ETV
vector 218  ApplicationClusteringImplementations.TemperatureSensorNode5.TemperatureSensor.Transducer  "Energy Consumptions"  ETV
vector 219  ApplicationClusteringImplementations.TemperatureSensorNode5.TemperatureSensor.Transducer  "Current use over time"  ETV
vector 220  ApplicationClusteringImplementations.TemperatureSensorNode5.Memory  "Energy Consumptions"  ETV
vector 221  ApplicationClusteringImplementations.TemperatureSensorNode5.Memory  "Current use over time"  ETV
vector 229  ApplicationClusteringImplementations.TemperatureSensorNode6.TemperatureSensor.SensingUnit  "Energy Consumptions"  ETV
vector 230  ApplicationClusteringImplementations.TemperatureSensorNode6.TemperatureSensor.SensingUnit  "Current use over time"  ETV
vector 231  ApplicationClusteringImplementations.TemperatureSensorNode6.TemperatureSensor.SignalConditioner  "Energy Consumptions"  ETV
vector 232  ApplicationClusteringImplementations.TemperatureSensorNode6.TemperatureSensor.SignalConditioner  "Current use over time"  ETV
vector 233  ApplicationClusteringImplementations.TemperatureSensorNode6.TemperatureSensor.SignalConverter  "Energy Consumptions"  ETV
vector 234  ApplicationClusteringImplementations.TemperatureSensorNode6.TemperatureSensor.SignalConverter  "Current use over time"  ETV
vector 235  ApplicationClusteringImplementations.TemperatureSensorNode6.TemperatureSensor.Transducer  "Energy Consumptions"  ETV
vector 236  ApplicationClusteringImplementations.TemperatureSensorNode6.TemperatureSensor.Transducer  "Current use over time"  ETV
vector 237  ApplicationClusteringImplementations.TemperatureSensorNode6.Memory  "Energy Consumptions"  ETV
vector 238  ApplicationClusteringImplementations.TemperatureSensorNode6.Memory  "Current use over time"  ETV
vector 246  ApplicationClusteringImplementations.TemperatureSensorNode7.TemperatureSensor.SensingUnit  "Energy Consumptions"  ETV
vector 247  ApplicationClusteringImplementations.TemperatureSensorNode7.TemperatureSensor.SensingUnit  "Current use over time"  ETV
vector 248  ApplicationClusteringImplementations.TemperatureSensorNode7.TemperatureSensor.SignalConditioner  "Energy Consumptions"  ETV
vector 249  ApplicationClusteringImplementations.TemperatureSensorNode7.TemperatureSensor.SignalConditioner  "Current use over time"  ETV
vector 250  ApplicationClusteringImplementations.TemperatureSensorNode7.TemperatureSensor.SignalConverter  "Energy Consumptions"  ETV
vector 251  ApplicationClusteringImplementations.TemperatureSensorNode7.TemperatureSensor.SignalConverter  "Current use over time"  ETV
vector 252  ApplicationClusteringImplementations.TemperatureSensorNode7.TemperatureSensor.Transducer  "Energy Consumptions"  ETV
vector 253  ApplicationClusteringImplementations.TemperatureSensorNode7.TemperatureSensor.Transducer  "Current use over time"  ETV
vector 254  ApplicationClusteringImplementations.TemperatureSensorNode7.Memory  "Energy Consumptions"  ETV
vector 255  ApplicationClusteringImplementations.TemperatureSensorNode7.Memory  "Current use over time"  ETV
vector 263  ApplicationClusteringImplementations.TemperatureSensorNode8.TemperatureSensor.SensingUnit  "Energy Consumptions"  ETV
vector 264  ApplicationClusteringImplementations.TemperatureSensorNode8.TemperatureSensor.SensingUnit  "Current use over time"  ETV
vector 265  ApplicationClusteringImplementations.TemperatureSensorNode8.TemperatureSensor.SignalConditioner  "Energy Consumptions"  ETV
vector 266  ApplicationClusteringImplementations.TemperatureSensorNode8.TemperatureSensor.SignalConditioner  "Current use over time"  ETV
vector 267  ApplicationClusteringImplementations.TemperatureSensorNode8.TemperatureSensor.SignalConverter  "Energy Consumptions"  ETV
vector 268  ApplicationClusteringImplementations.TemperatureSensorNode8.TemperatureSensor.SignalConverter  "Current use over time"  ETV
vector 269  ApplicationClusteringImplementations.TemperatureSensorNode8.TemperatureSensor.Transducer  "Energy Consumptions"  ETV
vector 270  ApplicationClusteringImplementations.TemperatureSensorNode8.TemperatureSensor.Transducer  "Current use over time"  ETV
vector 271  ApplicationClusteringImplementations.TemperatureSensorNode8.Memory  "Energy Consumptions"  ETV
vector 272  ApplicationClusteringImplementations.TemperatureSensorNode8.Memory  "Current use over time"  ETV
vector 280  ApplicationClusteringImplementations.TemperatureSensorNode9.TemperatureSensor.SensingUnit  "Energy Consumptions"  ETV
vector 281  ApplicationClusteringImplementations.TemperatureSensorNode9.TemperatureSensor.SensingUnit  "Current use over time"  ETV
vector 282  ApplicationClusteringImplementations.TemperatureSensorNode9.TemperatureSensor.SignalConditioner  "Energy Consumptions"  ETV
vector 283  ApplicationClusteringImplementations.TemperatureSensorNode9.TemperatureSensor.SignalConditioner  "Current use over time"  ETV
vector 284  ApplicationClusteringImplementations.TemperatureSensorNode9.TemperatureSensor.SignalConverter  "Energy Consumptions"  ETV
vector 285  ApplicationClusteringImplementations.TemperatureSensorNode9.TemperatureSensor.SignalConverter  "Current use over time"  ETV
vector 286  ApplicationClusteringImplementations.TemperatureSensorNode9.TemperatureSensor.Transducer  "Energy Consumptions"  ETV
vector 287  ApplicationClusteringImplementations.TemperatureSensorNode9.TemperatureSensor.Transducer  "Current use over time"  ETV
vector 288  ApplicationClusteringImplementations.TemperatureSensorNode9.Memory  "Energy Consumptions"  ETV
vector 289  ApplicationClusteringImplementations.TemperatureSensorNode9.Memory  "Current use over time"  ETV
7	18311 16 0 0 0 0 2 0 0 0 0
8	18327 8 0 0 0 0 1 0 0 0 0
9	18335 8 0 0 0 0 1 3 3 3 9
10	18343 9 0 0 0 0 1 1 1 1 1
11	18352 16 0 0 0 0 1 10800000 10800000 10800000 1.1664e+14
19	18368 18 0 0 0 0 2 0 0 0 0
20	18386 9 0 0 0 0 1 0 0 0 0
21	18395 9 0 0 0 0 1 3 3 3 9
22	18404 9 0 0 0 0 1 1 1 1 1
23	18413 16 0 0 0 0 1 10800000 10800000 10800000 1.1664e+14
31	18429 18 0 0 0 0 2 0 0 0 0
32	18447 9 0 0 0 0 1 0 0 0 0
33	18456 9 0 0 0 0 1 3 3 3 9
34	18465 9 0 0 0 0 1 1 1 1 1
35	18474 16 0 0 0 0 1 10800000 10800000 10800000 1.1664e+14
43	18490 18 0 0 0 0 2 0 0 0 0
44	18508 9 0 0 0 0 1 0 0 0 0
45	18517 9 0 0 0 0 1 3 3 3 9
46	18526 9 0 0 0 0 1 1 1 1 1
47	18535 16 0 0 0 0 1 10800000 10800000 10800000 1.1664e+14
55	18551 18 0 0 0 0 2 0 0 0 0
56	18569 9 0 0 0 0 1 0 0 0 0
57	18578 9 0 0 0 0 1 3 3 3 9
58	18587 9 0 0 0 0 1 1 1 1 1
59	18596 16 0 0 0 0 1 10800000 10800000 10800000 1.1664e+14
67	18612 18 0 0 0 0 2 0 0 0 0
68	18630 9 0 0 0 0 1 0 0 0 0
69	18639 9 0 0 0 0 1 3 3 3 9
70	18648 9 0 0 0 0 1 1 1 1 1
71	18657 16 0 0 0 0 1 10800000 10800000 10800000 1.1664e+14
79	18673 18 0 0 0 0 2 0 0 0 0
80	18691 9 0 0 0 0 1 0 0 0 0
81	18700 9 0 0 0 0 1 3 3 3 9
82	18709 9 0 0 0 0 1 1 1 1 1
83	18718 16 0 0 0 0 1 10800000 10800000 10800000 1.1664e+14
91	18734 18 0 0 0 0 2 0 0 0 0
92	18752 9 0 0 0 0 1 0 0 0 0
93	18761 9 0 0 0 0 1 3 3 3 9
94	18770 9 0 0 0 0 1 1 1 1 1
95	18779 16 0 0 0 0 1 10800000 10800000 10800000 1.1664e+14
103	18795 20 0 0 0 0 2 0 0 0 0
104	18815 10 0 0 0 0 1 0 0 0 0
105	18825 10 0 0 0 0 1 3 3 3 9
106	18835 10 0 0 0 0 1 1 1 1 1
107	18845 17 0 0 0 0 1 10800000 10800000 10800000 1.1664e+14
115	18862 20 0 0 0 0 2 0 0 0 0
116	18882 10 0 0 0 0 1 0 0 0 0
117	18892 10 0 0 0 0 1 3 3 3 9
118	18902 10 0 0 0 0 1 1 1 1 1
119	18912 17 0 0 0 0 1 10800000 10800000 10800000 1.1664e+14
127	18929 36 0 0 0 0 3 100 100 300 30000
128	18965 10 0 0 0 0 1 3 3 3 9
129	18975 12 0 0 0 0 1 100 100 100 10000
130	18987 10 0 0 0 0 1 3 3 3 9
131	18997 12 0 0 0 0 1 100 100 100 10000
132	19009 10 0 0 0 0 1 3 3 3 9
133	19019 12 0 0 0 0 1 100 100 100 10000
134	19031 10 0 0 0 0 1 3 3 3 9
135	19041 12 0 0 0 0 1 100 100 100 10000
136	19053 10 0 0 0 0 1 3 3 3 9
144	19063 36 0 0 0 0 3 100 100 300 30000
145	19099 10 0 0 0 0 1 3 3 3 9
146	19109 12 0 0 0 0 1 100 100 100 10000
147	19121 10 0 0 0 0 1 3 3 3 9
148	19131 12 0 0 0 0 1 100 100 100 10000
149	19143 10 0 0 0 0 1 3 3 3 9
150	19153 12 0 0 0 0 1 100 100 100 10000
151	19165 10 0 0 0 0 1 3 3 3 9
152	19175 12 0 0 0 0 1 100 100 100 10000
153	19187 10 0 0 0 0 1 3 3 3 9
161	19197 36 0 0 0 0 3 100 100 300 30000
162	19233 10 0 0 0 0 1 3 3 3 9
163	19243 12 0 0 0 0 1 100 100 100 10000
164	19255 10 0 0 0 0 1 3 3 3 9
165	19265 12 0 0 0 0 1 100 100 100 10000
166	19277 10 0 0 0 0 1 3 3 3 9
167	19287 12 0 0 0 0 1 100 100 100 10000
168	19299 10 0 0 0 0 1 3 3 3 9
169	19309 12 0 0 0 0 1 100 100 100 10000
170	19321 10 0 0 0 0 1 3 3 3 9
178	19331 36 0 0 0 0 3 100 100 300 30000
179	19367 10 0 0 0 0 1 3 3 3 9
180	19377 12 0 0 0 0 1 100 100 100 10000
181	19389 10 0 0 0 0 1 3 3 3 9
182	19399 12 0 0 0 0 1 100 100 100 10000
183	19411 10 0 0 0 0 1 3 3 3 9
184	19421 12 0 0 0 0 1 100 100 100 10000
185	19433 10 0 0 0 0 1 3 3 3 9
186	19443 12 0 0 0 0 1 100 100 100 10000
187	19455 10 0 0 0 0 1 3 3 3 9
195	19465 36 0 0 0 0 3 100 100 300 30000
196	19501 10 0 0 0 0 1 3 3 3 9
197	19511 12 0 0 0 0 1 100 100 100 10000
198	19523 10 0 0 0 0 1 3 3 3 9
199	19533 12 0 0 0 0 1 100 100 100 10000
200	19545 10 0 0 0 0 1 3 3 3 9
201	19555 12 0 0 0 0 1 100 100 100 10000
202	19567 10 0 0 0 0 1 3 3 3 9
203	19577 12 0 0 0 0 1 100 100 100 10000
204	19589 10 0 0 0 0 1 3 3 3 9
212	19599 36 0 0 0 0 3 100 100 300 30000
213	19635 10 0 0 0 0 1 3 3 3 9
214	19645 12 0 0 0 0 1 100 100 100 10000
215	19657 10 0 0 0 0 1 3 3 3 9
216	19667 12 0 0 0 0 1 100 100 100 10000
217	19679 10 0 0 0 0 1 3 3 3 9
218	19689 12 0 0 0 0 1 100 100 100 10000
219	19701 10 0 0 0 0 1 3 3 3 9
220	19711 12 0 0 0 0 1 100 100 100 10000
221	19723 10 0 0 0 0 1 3 3 3 9
229	19733 36 0 0 0 0 3 100 100 300 30000
230	19769 10 0 0 0 0 1 3 3 3 9
231	19779 12 0 0 0 0 1 100 100 100 10000
232	19791 10 0 0 0 0 1 3 3 3 9
233	19801 12 0 0 0 0 1 100 100 100 10000
234	19813 10 0 0 0 0 1 3 3 3 9
235	19823 12 0 0 0 0 1 100 100 100 10000
236	19835 10 0 0 0 0 1 3 3 3 9
237	19845 12 0 0 0 0 1 100 100 100 10000
238	19857 10 0 0 0 0 1 3 3 3 9
246	19867 36 0 0 0 0 3 100 100 300 30000
247	19903 10 0 0 0 0 1 3 3 3 9
248	19913 12 0 0 0 0 1 100 100 100 10000
249	19925 10 0 0 0 0 1 3 3 3 9
250	19935 12 0 0 0 0 1 100 100 100 10000
251	19947 10 0 0 0 0 1 3 3 3 9
252	19957 12 0 0 0 0 1 100 100 100 10000
253	19969 10 0 0 0 0 1 3 3 3 9
254	19979 12 0 0 0 0 1 100 100 100 10000
255	19991 10 0 0 0 0 1 3 3 3 9
263	20001 36 0 0 0 0 3 100 100 300 30000
264	20037 10 0 0 0 0 1 3 3 3 9
265	20047 12 0 0 0 0 1 100 100 100 10000
266	20059 10 0 0 0 0 1 3 3 3 9
267	20069 12 0 0 0 0 1 100 100 100 10000
268	20081 10 0 0 0 0 1 3 3 3 9
269	20091 12 0 0 0 0 1 100 100 100 10000
270	20103 10 0 0 0 0 1 3 3 3 9
271	20113 12 0 0 0 0 1 100 100 100 10000
272	20125 10 0 0 0 0 1 3 3 3 9
280	20135 36 0 0 0 0 3 100 100 300 30000
281	20171 10 0 0 0 0 1 3 3 3 9
282	20181 12 0 0 0 0 1 100 100 100 10000
283	20193 10 0 0 0 0 1 3 3 3 9
284	20203 12 0 0 0 0 1 100 100 100 10000
285	20215 10 0 0 0 0 1 3 3 3 9
286	20225 12 0 0 0 0 1 100 100 100 10000
287	20237 10 0 0 0 0 1 3 3 3 9
288	20247 12 0 0 0 0 1 100 100 100 10000
289	20259 10 0 0 0 0 1 3 3 3 9
