version 2
run General-0-20160112-15:34:00-2892
attr configname General
attr datetime 20160112-15:34:00
attr experiment General
attr inifile szenario2.ini
attr iterationvars ""
attr iterationvars2 $repetition=0
attr measurement ""
attr network Szenario2
attr processid 2892
attr repetition 0
attr replication #0
attr resultdir results
attr runnumber 0
attr seedset 0

vector 7  Szenario2.Node0.Processor  "power mode"  ETV
vector 8  Szenario2.Node0.Processor  "Sensor Modules Status"  ETV
vector 9  Szenario2.Node0.Processor  Voltage  ETV
vector 10  Szenario2.Node0.Processor  residualRelative  ETV
vector 11  Szenario2.Node0.Processor  residualAbs  ETV
vector 19  Szenario2.Node1.Processor  "power mode"  ETV
vector 20  Szenario2.Node1.Processor  "Sensor Modules Status"  ETV
vector 21  Szenario2.Node1.Processor  Voltage  ETV
vector 22  Szenario2.Node1.Processor  residualRelative  ETV
vector 23  Szenario2.Node1.Processor  residualAbs  ETV
vector 31  Szenario2.Node2.Processor  "power mode"  ETV
vector 32  Szenario2.Node2.Processor  "Sensor Modules Status"  ETV
vector 33  Szenario2.Node2.Processor  Voltage  ETV
vector 34  Szenario2.Node2.Processor  residualRelative  ETV
vector 35  Szenario2.Node2.Processor  residualAbs  ETV
vector 43  Szenario2.Node3.Processor  "power mode"  ETV
vector 44  Szenario2.Node3.Processor  "Sensor Modules Status"  ETV
vector 45  Szenario2.Node3.Processor  Voltage  ETV
vector 46  Szenario2.Node3.Processor  residualRelative  ETV
vector 47  Szenario2.Node3.Processor  residualAbs  ETV
vector 55  Szenario2.Node4.Processor  "power mode"  ETV
vector 56  Szenario2.Node4.Processor  "Sensor Modules Status"  ETV
vector 57  Szenario2.Node4.Processor  Voltage  ETV
vector 58  Szenario2.Node4.Processor  residualRelative  ETV
vector 59  Szenario2.Node4.Processor  residualAbs  ETV
vector 67  Szenario2.Node5.Processor  "power mode"  ETV
vector 68  Szenario2.Node5.Processor  "Sensor Modules Status"  ETV
vector 69  Szenario2.Node5.Processor  Voltage  ETV
vector 70  Szenario2.Node5.Processor  residualRelative  ETV
vector 71  Szenario2.Node5.Processor  residualAbs  ETV
vector 79  Szenario2.Node6.Processor  "power mode"  ETV
vector 80  Szenario2.Node6.Processor  "Sensor Modules Status"  ETV
vector 81  Szenario2.Node6.Processor  Voltage  ETV
vector 82  Szenario2.Node6.Processor  residualRelative  ETV
vector 83  Szenario2.Node6.Processor  residualAbs  ETV
vector 91  Szenario2.Node7.Processor  "power mode"  ETV
vector 92  Szenario2.Node7.Processor  "Sensor Modules Status"  ETV
vector 93  Szenario2.Node7.Processor  Voltage  ETV
vector 94  Szenario2.Node7.Processor  residualRelative  ETV
vector 95  Szenario2.Node7.Processor  residualAbs  ETV
vector 103  Szenario2.Node8.Processor  "power mode"  ETV
vector 104  Szenario2.Node8.Processor  "Sensor Modules Status"  ETV
vector 105  Szenario2.Node8.Processor  Voltage  ETV
vector 106  Szenario2.Node8.Processor  residualRelative  ETV
vector 107  Szenario2.Node8.Processor  residualAbs  ETV
vector 115  Szenario2.Node9.Processor  "power mode"  ETV
vector 116  Szenario2.Node9.Processor  "Sensor Modules Status"  ETV
vector 117  Szenario2.Node9.Processor  Voltage  ETV
vector 118  Szenario2.Node9.Processor  residualRelative  ETV
vector 119  Szenario2.Node9.Processor  residualAbs  ETV
vector 127  Szenario2.Node10.Processor  "power mode"  ETV
vector 128  Szenario2.Node10.Processor  "Sensor Modules Status"  ETV
vector 129  Szenario2.Node10.Processor  Voltage  ETV
vector 130  Szenario2.Node10.Processor  residualRelative  ETV
vector 131  Szenario2.Node10.Processor  residualAbs  ETV
vector 139  Szenario2.Node11.Processor  "power mode"  ETV
vector 140  Szenario2.Node11.Processor  "Sensor Modules Status"  ETV
vector 141  Szenario2.Node11.Processor  Voltage  ETV
vector 142  Szenario2.Node11.Processor  residualRelative  ETV
vector 143  Szenario2.Node11.Processor  residualAbs  ETV
vector 151  Szenario2.Node12.Processor  "power mode"  ETV
vector 152  Szenario2.Node12.Processor  "Sensor Modules Status"  ETV
vector 153  Szenario2.Node12.Processor  Voltage  ETV
vector 154  Szenario2.Node12.Processor  residualRelative  ETV
vector 155  Szenario2.Node12.Processor  residualAbs  ETV
vector 163  Szenario2.Node13.Processor  "power mode"  ETV
vector 164  Szenario2.Node13.Processor  "Sensor Modules Status"  ETV
vector 165  Szenario2.Node13.Processor  Voltage  ETV
vector 166  Szenario2.Node13.Processor  residualRelative  ETV
vector 167  Szenario2.Node13.Processor  residualAbs  ETV
vector 175  Szenario2.Node14.Processor  "power mode"  ETV
vector 176  Szenario2.Node14.Processor  "Sensor Modules Status"  ETV
vector 177  Szenario2.Node14.Processor  Voltage  ETV
vector 178  Szenario2.Node14.Processor  residualRelative  ETV
vector 179  Szenario2.Node14.Processor  residualAbs  ETV
vector 187  Szenario2.Node15.Processor  "power mode"  ETV
vector 188  Szenario2.Node15.Processor  "Sensor Modules Status"  ETV
vector 189  Szenario2.Node15.Processor  Voltage  ETV
vector 190  Szenario2.Node15.Processor  residualRelative  ETV
vector 191  Szenario2.Node15.Processor  residualAbs  ETV
vector 199  Szenario2.Node16.Processor  "power mode"  ETV
vector 200  Szenario2.Node16.Processor  "Sensor Modules Status"  ETV
vector 201  Szenario2.Node16.Processor  Voltage  ETV
vector 202  Szenario2.Node16.Processor  residualRelative  ETV
vector 203  Szenario2.Node16.Processor  residualAbs  ETV
vector 211  Szenario2.Node17.Processor  "power mode"  ETV
vector 212  Szenario2.Node17.Processor  "Sensor Modules Status"  ETV
vector 213  Szenario2.Node17.Processor  Voltage  ETV
vector 214  Szenario2.Node17.Processor  residualRelative  ETV
vector 215  Szenario2.Node17.Processor  residualAbs  ETV
vector 223  Szenario2.Node18.Processor  "power mode"  ETV
vector 224  Szenario2.Node18.Processor  "Sensor Modules Status"  ETV
vector 225  Szenario2.Node18.Processor  Voltage  ETV
vector 226  Szenario2.Node18.Processor  residualRelative  ETV
vector 227  Szenario2.Node18.Processor  residualAbs  ETV
vector 235  Szenario2.Node19.Processor  "power mode"  ETV
vector 236  Szenario2.Node19.Processor  "Sensor Modules Status"  ETV
vector 237  Szenario2.Node19.Processor  Voltage  ETV
vector 238  Szenario2.Node19.Processor  residualRelative  ETV
vector 239  Szenario2.Node19.Processor  residualAbs  ETV
vector 240  Szenario2.Node0.Memory  "Energy Consumptions"  ETV
vector 241  Szenario2.Node0.Memory  "Current use over time"  ETV
vector 249  Szenario2.Node1.Memory  "Energy Consumptions"  ETV
vector 250  Szenario2.Node1.Memory  "Current use over time"  ETV
vector 258  Szenario2.Node2.TemperatureSensor.SensingUnit  "Energy Consumptions"  ETV
vector 259  Szenario2.Node2.TemperatureSensor.SensingUnit  "Current use over time"  ETV
vector 260  Szenario2.Node2.TemperatureSensor.SignalConditioner  "Energy Consumptions"  ETV
vector 261  Szenario2.Node2.TemperatureSensor.SignalConditioner  "Current use over time"  ETV
vector 262  Szenario2.Node2.TemperatureSensor.SignalConverter  "Energy Consumptions"  ETV
vector 263  Szenario2.Node2.TemperatureSensor.SignalConverter  "Current use over time"  ETV
vector 264  Szenario2.Node2.TemperatureSensor.Transducer  "Energy Consumptions"  ETV
vector 265  Szenario2.Node2.TemperatureSensor.Transducer  "Current use over time"  ETV
vector 266  Szenario2.Node2.HumiditySensor.SensingUnit  "Energy Consumptions"  ETV
vector 267  Szenario2.Node2.HumiditySensor.SensingUnit  "Current use over time"  ETV
vector 268  Szenario2.Node2.HumiditySensor.SignalConditioner  "Energy Consumptions"  ETV
vector 269  Szenario2.Node2.HumiditySensor.SignalConditioner  "Current use over time"  ETV
vector 270  Szenario2.Node2.HumiditySensor.SignalConverter  "Energy Consumptions"  ETV
vector 271  Szenario2.Node2.HumiditySensor.SignalConverter  "Current use over time"  ETV
vector 272  Szenario2.Node2.HumiditySensor.Transducer  "Energy Consumptions"  ETV
vector 273  Szenario2.Node2.HumiditySensor.Transducer  "Current use over time"  ETV
vector 274  Szenario2.Node2.Memory  "Energy Consumptions"  ETV
vector 275  Szenario2.Node2.Memory  "Current use over time"  ETV
vector 283  Szenario2.Node3.TemperatureSensor.SensingUnit  "Energy Consumptions"  ETV
vector 284  Szenario2.Node3.TemperatureSensor.SensingUnit  "Current use over time"  ETV
vector 285  Szenario2.Node3.TemperatureSensor.SignalConditioner  "Energy Consumptions"  ETV
vector 286  Szenario2.Node3.TemperatureSensor.SignalConditioner  "Current use over time"  ETV
vector 287  Szenario2.Node3.TemperatureSensor.SignalConverter  "Energy Consumptions"  ETV
vector 288  Szenario2.Node3.TemperatureSensor.SignalConverter  "Current use over time"  ETV
vector 289  Szenario2.Node3.TemperatureSensor.Transducer  "Energy Consumptions"  ETV
vector 290  Szenario2.Node3.TemperatureSensor.Transducer  "Current use over time"  ETV
vector 291  Szenario2.Node3.PressureSensor.SensingUnit  "Energy Consumptions"  ETV
vector 292  Szenario2.Node3.PressureSensor.SensingUnit  "Current use over time"  ETV
vector 293  Szenario2.Node3.PressureSensor.SignalConditioner  "Energy Consumptions"  ETV
vector 294  Szenario2.Node3.PressureSensor.SignalConditioner  "Current use over time"  ETV
vector 295  Szenario2.Node3.PressureSensor.SignalConverter  "Energy Consumptions"  ETV
vector 296  Szenario2.Node3.PressureSensor.SignalConverter  "Current use over time"  ETV
vector 297  Szenario2.Node3.PressureSensor.Transducer  "Energy Consumptions"  ETV
vector 298  Szenario2.Node3.PressureSensor.Transducer  "Current use over time"  ETV
vector 299  Szenario2.Node3.LightSensor.SensingUnit  "Energy Consumptions"  ETV
vector 300  Szenario2.Node3.LightSensor.SensingUnit  "Current use over time"  ETV
vector 301  Szenario2.Node3.LightSensor.SignalConditioner  "Energy Consumptions"  ETV
vector 302  Szenario2.Node3.LightSensor.SignalConditioner  "Current use over time"  ETV
vector 303  Szenario2.Node3.LightSensor.SignalConverter  "Energy Consumptions"  ETV
vector 304  Szenario2.Node3.LightSensor.SignalConverter  "Current use over time"  ETV
vector 305  Szenario2.Node3.LightSensor.Transducer  "Energy Consumptions"  ETV
vector 306  Szenario2.Node3.LightSensor.Transducer  "Current use over time"  ETV
vector 307  Szenario2.Node3.Memory  "Energy Consumptions"  ETV
vector 308  Szenario2.Node3.Memory  "Current use over time"  ETV
vector 316  Szenario2.Node4.HumiditySensor.SensingUnit  "Energy Consumptions"  ETV
vector 317  Szenario2.Node4.HumiditySensor.SensingUnit  "Current use over time"  ETV
vector 318  Szenario2.Node4.HumiditySensor.SignalConditioner  "Energy Consumptions"  ETV
vector 319  Szenario2.Node4.HumiditySensor.SignalConditioner  "Current use over time"  ETV
vector 320  Szenario2.Node4.HumiditySensor.SignalConverter  "Energy Consumptions"  ETV
vector 321  Szenario2.Node4.HumiditySensor.SignalConverter  "Current use over time"  ETV
vector 322  Szenario2.Node4.HumiditySensor.Transducer  "Energy Consumptions"  ETV
vector 323  Szenario2.Node4.HumiditySensor.Transducer  "Current use over time"  ETV
vector 324  Szenario2.Node4.Memory  "Energy Consumptions"  ETV
vector 325  Szenario2.Node4.Memory  "Current use over time"  ETV
vector 333  Szenario2.Node5.Memory  "Energy Consumptions"  ETV
vector 334  Szenario2.Node5.Memory  "Current use over time"  ETV
vector 342  Szenario2.Node6.LightSensor.SensingUnit  "Energy Consumptions"  ETV
vector 343  Szenario2.Node6.LightSensor.SensingUnit  "Current use over time"  ETV
vector 344  Szenario2.Node6.LightSensor.SignalConditioner  "Energy Consumptions"  ETV
vector 345  Szenario2.Node6.LightSensor.SignalConditioner  "Current use over time"  ETV
vector 346  Szenario2.Node6.LightSensor.SignalConverter  "Energy Consumptions"  ETV
vector 347  Szenario2.Node6.LightSensor.SignalConverter  "Current use over time"  ETV
vector 348  Szenario2.Node6.LightSensor.Transducer  "Energy Consumptions"  ETV
vector 349  Szenario2.Node6.LightSensor.Transducer  "Current use over time"  ETV
vector 350  Szenario2.Node6.Memory  "Energy Consumptions"  ETV
vector 351  Szenario2.Node6.Memory  "Current use over time"  ETV
vector 359  Szenario2.Node7.TemperatureSensor.SensingUnit  "Energy Consumptions"  ETV
vector 360  Szenario2.Node7.TemperatureSensor.SensingUnit  "Current use over time"  ETV
vector 361  Szenario2.Node7.TemperatureSensor.SignalConditioner  "Energy Consumptions"  ETV
vector 362  Szenario2.Node7.TemperatureSensor.SignalConditioner  "Current use over time"  ETV
vector 363  Szenario2.Node7.TemperatureSensor.SignalConverter  "Energy Consumptions"  ETV
vector 364  Szenario2.Node7.TemperatureSensor.SignalConverter  "Current use over time"  ETV
vector 365  Szenario2.Node7.TemperatureSensor.Transducer  "Energy Consumptions"  ETV
vector 366  Szenario2.Node7.TemperatureSensor.Transducer  "Current use over time"  ETV
vector 367  Szenario2.Node7.HumiditySensor.SensingUnit  "Energy Consumptions"  ETV
vector 368  Szenario2.Node7.HumiditySensor.SensingUnit  "Current use over time"  ETV
vector 369  Szenario2.Node7.HumiditySensor.SignalConditioner  "Energy Consumptions"  ETV
vector 370  Szenario2.Node7.HumiditySensor.SignalConditioner  "Current use over time"  ETV
vector 371  Szenario2.Node7.HumiditySensor.SignalConverter  "Energy Consumptions"  ETV
vector 372  Szenario2.Node7.HumiditySensor.SignalConverter  "Current use over time"  ETV
vector 373  Szenario2.Node7.HumiditySensor.Transducer  "Energy Consumptions"  ETV
vector 374  Szenario2.Node7.HumiditySensor.Transducer  "Current use over time"  ETV
vector 375  Szenario2.Node7.PressureSensor.SensingUnit  "Energy Consumptions"  ETV
vector 376  Szenario2.Node7.PressureSensor.SensingUnit  "Current use over time"  ETV
vector 377  Szenario2.Node7.PressureSensor.SignalConditioner  "Energy Consumptions"  ETV
vector 378  Szenario2.Node7.PressureSensor.SignalConditioner  "Current use over time"  ETV
vector 379  Szenario2.Node7.PressureSensor.SignalConverter  "Energy Consumptions"  ETV
vector 380  Szenario2.Node7.PressureSensor.SignalConverter  "Current use over time"  ETV
vector 381  Szenario2.Node7.PressureSensor.Transducer  "Energy Consumptions"  ETV
vector 382  Szenario2.Node7.PressureSensor.Transducer  "Current use over time"  ETV
vector 383  Szenario2.Node7.Memory  "Energy Consumptions"  ETV
vector 384  Szenario2.Node7.Memory  "Current use over time"  ETV
vector 392  Szenario2.Node8.LightSensor.SensingUnit  "Energy Consumptions"  ETV
vector 393  Szenario2.Node8.LightSensor.SensingUnit  "Current use over time"  ETV
vector 394  Szenario2.Node8.LightSensor.SignalConditioner  "Energy Consumptions"  ETV
vector 395  Szenario2.Node8.LightSensor.SignalConditioner  "Current use over time"  ETV
vector 396  Szenario2.Node8.LightSensor.SignalConverter  "Energy Consumptions"  ETV
vector 397  Szenario2.Node8.LightSensor.SignalConverter  "Current use over time"  ETV
vector 398  Szenario2.Node8.LightSensor.Transducer  "Energy Consumptions"  ETV
vector 399  Szenario2.Node8.LightSensor.Transducer  "Current use over time"  ETV
vector 400  Szenario2.Node8.Memory  "Energy Consumptions"  ETV
vector 401  Szenario2.Node8.Memory  "Current use over time"  ETV
vector 409  Szenario2.Node9.Memory  "Energy Consumptions"  ETV
vector 410  Szenario2.Node9.Memory  "Current use over time"  ETV
vector 418  Szenario2.Node10.LightSensor.SensingUnit  "Energy Consumptions"  ETV
vector 419  Szenario2.Node10.LightSensor.SensingUnit  "Current use over time"  ETV
vector 420  Szenario2.Node10.LightSensor.SignalConditioner  "Energy Consumptions"  ETV
vector 421  Szenario2.Node10.LightSensor.SignalConditioner  "Current use over time"  ETV
vector 422  Szenario2.Node10.LightSensor.SignalConverter  "Energy Consumptions"  ETV
vector 423  Szenario2.Node10.LightSensor.SignalConverter  "Current use over time"  ETV
vector 424  Szenario2.Node10.LightSensor.Transducer  "Energy Consumptions"  ETV
vector 425  Szenario2.Node10.LightSensor.Transducer  "Current use over time"  ETV
vector 426  Szenario2.Node10.Memory  "Energy Consumptions"  ETV
vector 427  Szenario2.Node10.Memory  "Current use over time"  ETV
vector 435  Szenario2.Node11.TemperatureSensor.SensingUnit  "Energy Consumptions"  ETV
vector 436  Szenario2.Node11.TemperatureSensor.SensingUnit  "Current use over time"  ETV
vector 437  Szenario2.Node11.TemperatureSensor.SignalConditioner  "Energy Consumptions"  ETV
vector 438  Szenario2.Node11.TemperatureSensor.SignalConditioner  "Current use over time"  ETV
vector 439  Szenario2.Node11.TemperatureSensor.SignalConverter  "Energy Consumptions"  ETV
vector 440  Szenario2.Node11.TemperatureSensor.SignalConverter  "Current use over time"  ETV
vector 441  Szenario2.Node11.TemperatureSensor.Transducer  "Energy Consumptions"  ETV
vector 442  Szenario2.Node11.TemperatureSensor.Transducer  "Current use over time"  ETV
vector 443  Szenario2.Node11.HumiditySensor.SensingUnit  "Energy Consumptions"  ETV
vector 444  Szenario2.Node11.HumiditySensor.SensingUnit  "Current use over time"  ETV
vector 445  Szenario2.Node11.HumiditySensor.SignalConditioner  "Energy Consumptions"  ETV
vector 446  Szenario2.Node11.HumiditySensor.SignalConditioner  "Current use over time"  ETV
vector 447  Szenario2.Node11.HumiditySensor.SignalConverter  "Energy Consumptions"  ETV
vector 448  Szenario2.Node11.HumiditySensor.SignalConverter  "Current use over time"  ETV
vector 449  Szenario2.Node11.HumiditySensor.Transducer  "Energy Consumptions"  ETV
vector 450  Szenario2.Node11.HumiditySensor.Transducer  "Current use over time"  ETV
vector 451  Szenario2.Node11.PressureSensor.SensingUnit  "Energy Consumptions"  ETV
vector 452  Szenario2.Node11.PressureSensor.SensingUnit  "Current use over time"  ETV
vector 453  Szenario2.Node11.PressureSensor.SignalConditioner  "Energy Consumptions"  ETV
vector 454  Szenario2.Node11.PressureSensor.SignalConditioner  "Current use over time"  ETV
vector 455  Szenario2.Node11.PressureSensor.SignalConverter  "Energy Consumptions"  ETV
vector 456  Szenario2.Node11.PressureSensor.SignalConverter  "Current use over time"  ETV
vector 457  Szenario2.Node11.PressureSensor.Transducer  "Energy Consumptions"  ETV
vector 458  Szenario2.Node11.PressureSensor.Transducer  "Current use over time"  ETV
vector 459  Szenario2.Node11.LightSensor.SensingUnit  "Energy Consumptions"  ETV
vector 460  Szenario2.Node11.LightSensor.SensingUnit  "Current use over time"  ETV
vector 461  Szenario2.Node11.LightSensor.SignalConditioner  "Energy Consumptions"  ETV
vector 462  Szenario2.Node11.LightSensor.SignalConditioner  "Current use over time"  ETV
vector 463  Szenario2.Node11.LightSensor.SignalConverter  "Energy Consumptions"  ETV
vector 464  Szenario2.Node11.LightSensor.SignalConverter  "Current use over time"  ETV
vector 465  Szenario2.Node11.LightSensor.Transducer  "Energy Consumptions"  ETV
vector 466  Szenario2.Node11.LightSensor.Transducer  "Current use over time"  ETV
vector 467  Szenario2.Node11.Memory  "Energy Consumptions"  ETV
vector 468  Szenario2.Node11.Memory  "Current use over time"  ETV
vector 476  Szenario2.Node12.PressureSensor.SensingUnit  "Energy Consumptions"  ETV
vector 477  Szenario2.Node12.PressureSensor.SensingUnit  "Current use over time"  ETV
vector 478  Szenario2.Node12.PressureSensor.SignalConditioner  "Energy Consumptions"  ETV
vector 479  Szenario2.Node12.PressureSensor.SignalConditioner  "Current use over time"  ETV
vector 480  Szenario2.Node12.PressureSensor.SignalConverter  "Energy Consumptions"  ETV
vector 481  Szenario2.Node12.PressureSensor.SignalConverter  "Current use over time"  ETV
vector 482  Szenario2.Node12.PressureSensor.Transducer  "Energy Consumptions"  ETV
vector 483  Szenario2.Node12.PressureSensor.Transducer  "Current use over time"  ETV
vector 484  Szenario2.Node12.Memory  "Energy Consumptions"  ETV
vector 485  Szenario2.Node12.Memory  "Current use over time"  ETV
vector 493  Szenario2.Node13.TemperatureSensor.SensingUnit  "Energy Consumptions"  ETV
vector 494  Szenario2.Node13.TemperatureSensor.SensingUnit  "Current use over time"  ETV
vector 495  Szenario2.Node13.TemperatureSensor.SignalConditioner  "Energy Consumptions"  ETV
vector 496  Szenario2.Node13.TemperatureSensor.SignalConditioner  "Current use over time"  ETV
vector 497  Szenario2.Node13.TemperatureSensor.SignalConverter  "Energy Consumptions"  ETV
vector 498  Szenario2.Node13.TemperatureSensor.SignalConverter  "Current use over time"  ETV
vector 499  Szenario2.Node13.TemperatureSensor.Transducer  "Energy Consumptions"  ETV
vector 500  Szenario2.Node13.TemperatureSensor.Transducer  "Current use over time"  ETV
vector 501  Szenario2.Node13.HumiditySensor.SensingUnit  "Energy Consumptions"  ETV
vector 502  Szenario2.Node13.HumiditySensor.SensingUnit  "Current use over time"  ETV
vector 503  Szenario2.Node13.HumiditySensor.SignalConditioner  "Energy Consumptions"  ETV
vector 504  Szenario2.Node13.HumiditySensor.SignalConditioner  "Current use over time"  ETV
vector 505  Szenario2.Node13.HumiditySensor.SignalConverter  "Energy Consumptions"  ETV
vector 506  Szenario2.Node13.HumiditySensor.SignalConverter  "Current use over time"  ETV
vector 507  Szenario2.Node13.HumiditySensor.Transducer  "Energy Consumptions"  ETV
vector 508  Szenario2.Node13.HumiditySensor.Transducer  "Current use over time"  ETV
vector 509  Szenario2.Node13.LightSensor.SensingUnit  "Energy Consumptions"  ETV
vector 510  Szenario2.Node13.LightSensor.SensingUnit  "Current use over time"  ETV
vector 511  Szenario2.Node13.LightSensor.SignalConditioner  "Energy Consumptions"  ETV
vector 512  Szenario2.Node13.LightSensor.SignalConditioner  "Current use over time"  ETV
vector 513  Szenario2.Node13.LightSensor.SignalConverter  "Energy Consumptions"  ETV
vector 514  Szenario2.Node13.LightSensor.SignalConverter  "Current use over time"  ETV
vector 515  Szenario2.Node13.LightSensor.Transducer  "Energy Consumptions"  ETV
vector 516  Szenario2.Node13.LightSensor.Transducer  "Current use over time"  ETV
vector 517  Szenario2.Node13.Memory  "Energy Consumptions"  ETV
vector 518  Szenario2.Node13.Memory  "Current use over time"  ETV
vector 526  Szenario2.Node14.Memory  "Energy Consumptions"  ETV
vector 527  Szenario2.Node14.Memory  "Current use over time"  ETV
vector 535  Szenario2.Node15.TemperatureSensor.SensingUnit  "Energy Consumptions"  ETV
vector 536  Szenario2.Node15.TemperatureSensor.SensingUnit  "Current use over time"  ETV
vector 537  Szenario2.Node15.TemperatureSensor.SignalConditioner  "Energy Consumptions"  ETV
vector 538  Szenario2.Node15.TemperatureSensor.SignalConditioner  "Current use over time"  ETV
vector 539  Szenario2.Node15.TemperatureSensor.SignalConverter  "Energy Consumptions"  ETV
vector 540  Szenario2.Node15.TemperatureSensor.SignalConverter  "Current use over time"  ETV
vector 541  Szenario2.Node15.TemperatureSensor.Transducer  "Energy Consumptions"  ETV
vector 542  Szenario2.Node15.TemperatureSensor.Transducer  "Current use over time"  ETV
vector 543  Szenario2.Node15.HumiditySensor.SensingUnit  "Energy Consumptions"  ETV
vector 544  Szenario2.Node15.HumiditySensor.SensingUnit  "Current use over time"  ETV
vector 545  Szenario2.Node15.HumiditySensor.SignalConditioner  "Energy Consumptions"  ETV
vector 546  Szenario2.Node15.HumiditySensor.SignalConditioner  "Current use over time"  ETV
vector 547  Szenario2.Node15.HumiditySensor.SignalConverter  "Energy Consumptions"  ETV
vector 548  Szenario2.Node15.HumiditySensor.SignalConverter  "Current use over time"  ETV
vector 549  Szenario2.Node15.HumiditySensor.Transducer  "Energy Consumptions"  ETV
vector 550  Szenario2.Node15.HumiditySensor.Transducer  "Current use over time"  ETV
vector 551  Szenario2.Node15.PressureSensor.SensingUnit  "Energy Consumptions"  ETV
vector 552  Szenario2.Node15.PressureSensor.SensingUnit  "Current use over time"  ETV
vector 553  Szenario2.Node15.PressureSensor.SignalConditioner  "Energy Consumptions"  ETV
vector 554  Szenario2.Node15.PressureSensor.SignalConditioner  "Current use over time"  ETV
vector 555  Szenario2.Node15.PressureSensor.SignalConverter  "Energy Consumptions"  ETV
vector 556  Szenario2.Node15.PressureSensor.SignalConverter  "Current use over time"  ETV
vector 557  Szenario2.Node15.PressureSensor.Transducer  "Energy Consumptions"  ETV
vector 558  Szenario2.Node15.PressureSensor.Transducer  "Current use over time"  ETV
vector 559  Szenario2.Node15.LightSensor.SensingUnit  "Energy Consumptions"  ETV
vector 560  Szenario2.Node15.LightSensor.SensingUnit  "Current use over time"  ETV
vector 561  Szenario2.Node15.LightSensor.SignalConditioner  "Energy Consumptions"  ETV
vector 562  Szenario2.Node15.LightSensor.SignalConditioner  "Current use over time"  ETV
vector 563  Szenario2.Node15.LightSensor.SignalConverter  "Energy Consumptions"  ETV
vector 564  Szenario2.Node15.LightSensor.SignalConverter  "Current use over time"  ETV
vector 565  Szenario2.Node15.LightSensor.Transducer  "Energy Consumptions"  ETV
vector 566  Szenario2.Node15.LightSensor.Transducer  "Current use over time"  ETV
vector 567  Szenario2.Node15.Memory  "Energy Consumptions"  ETV
vector 568  Szenario2.Node15.Memory  "Current use over time"  ETV
vector 576  Szenario2.Node16.TemperatureSensor.SensingUnit  "Energy Consumptions"  ETV
vector 577  Szenario2.Node16.TemperatureSensor.SensingUnit  "Current use over time"  ETV
vector 578  Szenario2.Node16.TemperatureSensor.SignalConditioner  "Energy Consumptions"  ETV
vector 579  Szenario2.Node16.TemperatureSensor.SignalConditioner  "Current use over time"  ETV
vector 580  Szenario2.Node16.TemperatureSensor.SignalConverter  "Energy Consumptions"  ETV
vector 581  Szenario2.Node16.TemperatureSensor.SignalConverter  "Current use over time"  ETV
vector 582  Szenario2.Node16.TemperatureSensor.Transducer  "Energy Consumptions"  ETV
vector 583  Szenario2.Node16.TemperatureSensor.Transducer  "Current use over time"  ETV
vector 584  Szenario2.Node16.HumiditySensor.SensingUnit  "Energy Consumptions"  ETV
vector 585  Szenario2.Node16.HumiditySensor.SensingUnit  "Current use over time"  ETV
vector 586  Szenario2.Node16.HumiditySensor.SignalConditioner  "Energy Consumptions"  ETV
vector 587  Szenario2.Node16.HumiditySensor.SignalConditioner  "Current use over time"  ETV
vector 588  Szenario2.Node16.HumiditySensor.SignalConverter  "Energy Consumptions"  ETV
vector 589  Szenario2.Node16.HumiditySensor.SignalConverter  "Current use over time"  ETV
vector 590  Szenario2.Node16.HumiditySensor.Transducer  "Energy Consumptions"  ETV
vector 591  Szenario2.Node16.HumiditySensor.Transducer  "Current use over time"  ETV
vector 592  Szenario2.Node16.PressureSensor.SensingUnit  "Energy Consumptions"  ETV
vector 593  Szenario2.Node16.PressureSensor.SensingUnit  "Current use over time"  ETV
vector 594  Szenario2.Node16.PressureSensor.SignalConditioner  "Energy Consumptions"  ETV
vector 595  Szenario2.Node16.PressureSensor.SignalConditioner  "Current use over time"  ETV
vector 596  Szenario2.Node16.PressureSensor.SignalConverter  "Energy Consumptions"  ETV
vector 597  Szenario2.Node16.PressureSensor.SignalConverter  "Current use over time"  ETV
vector 598  Szenario2.Node16.PressureSensor.Transducer  "Energy Consumptions"  ETV
vector 599  Szenario2.Node16.PressureSensor.Transducer  "Current use over time"  ETV
vector 600  Szenario2.Node16.LightSensor.SensingUnit  "Energy Consumptions"  ETV
vector 601  Szenario2.Node16.LightSensor.SensingUnit  "Current use over time"  ETV
vector 602  Szenario2.Node16.LightSensor.SignalConditioner  "Energy Consumptions"  ETV
vector 603  Szenario2.Node16.LightSensor.SignalConditioner  "Current use over time"  ETV
vector 604  Szenario2.Node16.LightSensor.SignalConverter  "Energy Consumptions"  ETV
vector 605  Szenario2.Node16.LightSensor.SignalConverter  "Current use over time"  ETV
vector 606  Szenario2.Node16.LightSensor.Transducer  "Energy Consumptions"  ETV
vector 607  Szenario2.Node16.LightSensor.Transducer  "Current use over time"  ETV
vector 608  Szenario2.Node16.Memory  "Energy Consumptions"  ETV
vector 609  Szenario2.Node16.Memory  "Current use over time"  ETV
vector 617  Szenario2.Node17.TemperatureSensor.SensingUnit  "Energy Consumptions"  ETV
vector 618  Szenario2.Node17.TemperatureSensor.SensingUnit  "Current use over time"  ETV
vector 619  Szenario2.Node17.TemperatureSensor.SignalConditioner  "Energy Consumptions"  ETV
vector 620  Szenario2.Node17.TemperatureSensor.SignalConditioner  "Current use over time"  ETV
vector 621  Szenario2.Node17.TemperatureSensor.SignalConverter  "Energy Consumptions"  ETV
vector 622  Szenario2.Node17.TemperatureSensor.SignalConverter  "Current use over time"  ETV
vector 623  Szenario2.Node17.TemperatureSensor.Transducer  "Energy Consumptions"  ETV
vector 624  Szenario2.Node17.TemperatureSensor.Transducer  "Current use over time"  ETV
vector 625  Szenario2.Node17.HumiditySensor.SensingUnit  "Energy Consumptions"  ETV
vector 626  Szenario2.Node17.HumiditySensor.SensingUnit  "Current use over time"  ETV
vector 627  Szenario2.Node17.HumiditySensor.SignalConditioner  "Energy Consumptions"  ETV
vector 628  Szenario2.Node17.HumiditySensor.SignalConditioner  "Current use over time"  ETV
vector 629  Szenario2.Node17.HumiditySensor.SignalConverter  "Energy Consumptions"  ETV
vector 630  Szenario2.Node17.HumiditySensor.SignalConverter  "Current use over time"  ETV
vector 631  Szenario2.Node17.HumiditySensor.Transducer  "Energy Consumptions"  ETV
vector 632  Szenario2.Node17.HumiditySensor.Transducer  "Current use over time"  ETV
vector 633  Szenario2.Node17.PressureSensor.SensingUnit  "Energy Consumptions"  ETV
vector 634  Szenario2.Node17.PressureSensor.SensingUnit  "Current use over time"  ETV
vector 635  Szenario2.Node17.PressureSensor.SignalConditioner  "Energy Consumptions"  ETV
vector 636  Szenario2.Node17.PressureSensor.SignalConditioner  "Current use over time"  ETV
vector 637  Szenario2.Node17.PressureSensor.SignalConverter  "Energy Consumptions"  ETV
vector 638  Szenario2.Node17.PressureSensor.SignalConverter  "Current use over time"  ETV
vector 639  Szenario2.Node17.PressureSensor.Transducer  "Energy Consumptions"  ETV
vector 640  Szenario2.Node17.PressureSensor.Transducer  "Current use over time"  ETV