version 2
run General-0-20151113-20:05:17-9619
attr configname General
attr datetime 20151113-20:05:17
attr experiment General
attr inifile omnetpp.ini
attr iterationvars ""
attr iterationvars2 $repetition=0
attr measurement ""
attr network ApplicationClusteringImplementations
attr processid 9619
attr repetition 0
attr replication #0
attr resultdir results
attr runnumber 0
attr seedset 0

vector 7  ApplicationClusteringImplementations.TemperatureSensorNode0.Processor  "power mode"  ETV
vector 8  ApplicationClusteringImplementations.TemperatureSensorNode0.Processor  "Sensor Modules Status"  ETV
vector 9  ApplicationClusteringImplementations.TemperatureSensorNode0.Processor  Voltage  ETV
vector 10  ApplicationClusteringImplementations.TemperatureSensorNode0.Processor  residualRelative  ETV
vector 11  ApplicationClusteringImplementations.TemperatureSensorNode0.Processor  residualAbs  ETV
vector 19  ApplicationClusteringImplementations.TemperatureSensorNode1.Processor  "power mode"  ETV
vector 20  ApplicationClusteringImplementations.TemperatureSensorNode1.Processor  "Sensor Modules Status"  ETV
vector 21  ApplicationClusteringImplementations.TemperatureSensorNode1.Processor  Voltage  ETV
vector 22  ApplicationClusteringImplementations.TemperatureSensorNode1.Processor  residualRelative  ETV
vector 23  ApplicationClusteringImplementations.TemperatureSensorNode1.Processor  residualAbs  ETV
vector 31  ApplicationClusteringImplementations.TemperatureSensorNode2.Processor  "power mode"  ETV
vector 32  ApplicationClusteringImplementations.TemperatureSensorNode2.Processor  "Sensor Modules Status"  ETV
vector 33  ApplicationClusteringImplementations.TemperatureSensorNode2.Processor  Voltage  ETV
vector 34  ApplicationClusteringImplementations.TemperatureSensorNode2.Processor  residualRelative  ETV
vector 35  ApplicationClusteringImplementations.TemperatureSensorNode2.Processor  residualAbs  ETV
vector 43  ApplicationClusteringImplementations.TemperatureSensorNode3.Processor  "power mode"  ETV
vector 44  ApplicationClusteringImplementations.TemperatureSensorNode3.Processor  "Sensor Modules Status"  ETV
vector 45  ApplicationClusteringImplementations.TemperatureSensorNode3.Processor  Voltage  ETV
vector 46  ApplicationClusteringImplementations.TemperatureSensorNode3.Processor  residualRelative  ETV
vector 47  ApplicationClusteringImplementations.TemperatureSensorNode3.Processor  residualAbs  ETV
vector 55  ApplicationClusteringImplementations.TemperatureSensorNode4.Processor  "power mode"  ETV
vector 56  ApplicationClusteringImplementations.TemperatureSensorNode4.Processor  "Sensor Modules Status"  ETV
vector 57  ApplicationClusteringImplementations.TemperatureSensorNode4.Processor  Voltage  ETV
vector 58  ApplicationClusteringImplementations.TemperatureSensorNode4.Processor  residualRelative  ETV
vector 59  ApplicationClusteringImplementations.TemperatureSensorNode4.Processor  residualAbs  ETV
vector 67  ApplicationClusteringImplementations.TemperatureSensorNode5.Processor  "power mode"  ETV
vector 68  ApplicationClusteringImplementations.TemperatureSensorNode5.Processor  "Sensor Modules Status"  ETV
vector 69  ApplicationClusteringImplementations.TemperatureSensorNode5.Processor  Voltage  ETV
vector 70  ApplicationClusteringImplementations.TemperatureSensorNode5.Processor  residualRelative  ETV
vector 71  ApplicationClusteringImplementations.TemperatureSensorNode5.Processor  residualAbs  ETV
vector 79  ApplicationClusteringImplementations.TemperatureSensorNode6.Processor  "power mode"  ETV
vector 80  ApplicationClusteringImplementations.TemperatureSensorNode6.Processor  "Sensor Modules Status"  ETV
vector 81  ApplicationClusteringImplementations.TemperatureSensorNode6.Processor  Voltage  ETV
vector 82  ApplicationClusteringImplementations.TemperatureSensorNode6.Processor  residualRelative  ETV
vector 83  ApplicationClusteringImplementations.TemperatureSensorNode6.Processor  residualAbs  ETV
vector 91  ApplicationClusteringImplementations.TemperatureSensorNode7.Processor  "power mode"  ETV
vector 92  ApplicationClusteringImplementations.TemperatureSensorNode7.Processor  "Sensor Modules Status"  ETV
vector 93  ApplicationClusteringImplementations.TemperatureSensorNode7.Processor  Voltage  ETV
vector 94  ApplicationClusteringImplementations.TemperatureSensorNode7.Processor  residualRelative  ETV
vector 95  ApplicationClusteringImplementations.TemperatureSensorNode7.Processor  residualAbs  ETV
vector 103  ApplicationClusteringImplementations.TemperatureSensorNode8.Processor  "power mode"  ETV
vector 104  ApplicationClusteringImplementations.TemperatureSensorNode8.Processor  "Sensor Modules Status"  ETV
vector 105  ApplicationClusteringImplementations.TemperatureSensorNode8.Processor  Voltage  ETV
vector 106  ApplicationClusteringImplementations.TemperatureSensorNode8.Processor  residualRelative  ETV
vector 107  ApplicationClusteringImplementations.TemperatureSensorNode8.Processor  residualAbs  ETV
vector 115  ApplicationClusteringImplementations.TemperatureSensorNode0.TemperatureSensor.SensingUnit  "Energy Consumptions"  ETV
vector 116  ApplicationClusteringImplementations.TemperatureSensorNode0.TemperatureSensor.SensingUnit  "Current use over time"  ETV
vector 117  ApplicationClusteringImplementations.TemperatureSensorNode0.TemperatureSensor.SignalConditioner  "Energy Consumptions"  ETV
vector 118  ApplicationClusteringImplementations.TemperatureSensorNode0.TemperatureSensor.SignalConditioner  "Current use over time"  ETV
vector 119  ApplicationClusteringImplementations.TemperatureSensorNode0.TemperatureSensor.SignalConverter  "Energy Consumptions"  ETV
vector 120  ApplicationClusteringImplementations.TemperatureSensorNode0.TemperatureSensor.SignalConverter  "Current use over time"  ETV
vector 121  ApplicationClusteringImplementations.TemperatureSensorNode0.TemperatureSensor.Transducer  "Energy Consumptions"  ETV
vector 122  ApplicationClusteringImplementations.TemperatureSensorNode0.TemperatureSensor.Transducer  "Current use over time"  ETV
vector 123  ApplicationClusteringImplementations.TemperatureSensorNode0.Memory  "Energy Consumptions"  ETV
vector 124  ApplicationClusteringImplementations.TemperatureSensorNode0.Memory  "Current use over time"  ETV
vector 132  ApplicationClusteringImplementations.TemperatureSensorNode1.TemperatureSensor.SensingUnit  "Energy Consumptions"  ETV
vector 133  ApplicationClusteringImplementations.TemperatureSensorNode1.TemperatureSensor.SensingUnit  "Current use over time"  ETV
vector 134  ApplicationClusteringImplementations.TemperatureSensorNode1.TemperatureSensor.SignalConditioner  "Energy Consumptions"  ETV
vector 135  ApplicationClusteringImplementations.TemperatureSensorNode1.TemperatureSensor.SignalConditioner  "Current use over time"  ETV
vector 136  ApplicationClusteringImplementations.TemperatureSensorNode1.TemperatureSensor.SignalConverter  "Energy Consumptions"  ETV
vector 137  ApplicationClusteringImplementations.TemperatureSensorNode1.TemperatureSensor.SignalConverter  "Current use over time"  ETV
vector 138  ApplicationClusteringImplementations.TemperatureSensorNode1.TemperatureSensor.Transducer  "Energy Consumptions"  ETV
vector 139  ApplicationClusteringImplementations.TemperatureSensorNode1.TemperatureSensor.Transducer  "Current use over time"  ETV
vector 140  ApplicationClusteringImplementations.TemperatureSensorNode1.Memory  "Energy Consumptions"  ETV
vector 141  ApplicationClusteringImplementations.TemperatureSensorNode1.Memory  "Current use over time"  ETV
vector 149  ApplicationClusteringImplementations.TemperatureSensorNode2.TemperatureSensor.SensingUnit  "Energy Consumptions"  ETV
vector 150  ApplicationClusteringImplementations.TemperatureSensorNode2.TemperatureSensor.SensingUnit  "Current use over time"  ETV
vector 151  ApplicationClusteringImplementations.TemperatureSensorNode2.TemperatureSensor.SignalConditioner  "Energy Consumptions"  ETV
vector 152  ApplicationClusteringImplementations.TemperatureSensorNode2.TemperatureSensor.SignalConditioner  "Current use over time"  ETV
vector 153  ApplicationClusteringImplementations.TemperatureSensorNode2.TemperatureSensor.SignalConverter  "Energy Consumptions"  ETV
vector 154  ApplicationClusteringImplementations.TemperatureSensorNode2.TemperatureSensor.SignalConverter  "Current use over time"  ETV
vector 155  ApplicationClusteringImplementations.TemperatureSensorNode2.TemperatureSensor.Transducer  "Energy Consumptions"  ETV
vector 156  ApplicationClusteringImplementations.TemperatureSensorNode2.TemperatureSensor.Transducer  "Current use over time"  ETV
vector 157  ApplicationClusteringImplementations.TemperatureSensorNode2.Memory  "Energy Consumptions"  ETV
vector 158  ApplicationClusteringImplementations.TemperatureSensorNode2.Memory  "Current use over time"  ETV
vector 166  ApplicationClusteringImplementations.TemperatureSensorNode3.TemperatureSensor.SensingUnit  "Energy Consumptions"  ETV
vector 167  ApplicationClusteringImplementations.TemperatureSensorNode3.TemperatureSensor.SensingUnit  "Current use over time"  ETV
vector 168  ApplicationClusteringImplementations.TemperatureSensorNode3.TemperatureSensor.SignalConditioner  "Energy Consumptions"  ETV
vector 169  ApplicationClusteringImplementations.TemperatureSensorNode3.TemperatureSensor.SignalConditioner  "Current use over time"  ETV
vector 170  ApplicationClusteringImplementations.TemperatureSensorNode3.TemperatureSensor.SignalConverter  "Energy Consumptions"  ETV
vector 171  ApplicationClusteringImplementations.TemperatureSensorNode3.TemperatureSensor.SignalConverter  "Current use over time"  ETV
vector 172  ApplicationClusteringImplementations.TemperatureSensorNode3.TemperatureSensor.Transducer  "Energy Consumptions"  ETV
vector 173  ApplicationClusteringImplementations.TemperatureSensorNode3.TemperatureSensor.Transducer  "Current use over time"  ETV
vector 174  ApplicationClusteringImplementations.TemperatureSensorNode3.Memory  "Energy Consumptions"  ETV
vector 175  ApplicationClusteringImplementations.TemperatureSensorNode3.Memory  "Current use over time"  ETV
vector 183  ApplicationClusteringImplementations.TemperatureSensorNode4.TemperatureSensor.SensingUnit  "Energy Consumptions"  ETV
vector 184  ApplicationClusteringImplementations.TemperatureSensorNode4.TemperatureSensor.SensingUnit  "Current use over time"  ETV
vector 185  ApplicationClusteringImplementations.TemperatureSensorNode4.TemperatureSensor.SignalConditioner  "Energy Consumptions"  ETV
vector 186  ApplicationClusteringImplementations.TemperatureSensorNode4.TemperatureSensor.SignalConditioner  "Current use over time"  ETV
vector 187  ApplicationClusteringImplementations.TemperatureSensorNode4.TemperatureSensor.SignalConverter  "Energy Consumptions"  ETV
vector 188  ApplicationClusteringImplementations.TemperatureSensorNode4.TemperatureSensor.SignalConverter  "Current use over time"  ETV
vector 189  ApplicationClusteringImplementations.TemperatureSensorNode4.TemperatureSensor.Transducer  "Energy Consumptions"  ETV
vector 190  ApplicationClusteringImplementations.TemperatureSensorNode4.TemperatureSensor.Transducer  "Current use over time"  ETV
vector 191  ApplicationClusteringImplementations.TemperatureSensorNode4.Memory  "Energy Consumptions"  ETV
vector 192  ApplicationClusteringImplementations.TemperatureSensorNode4.Memory  "Current use over time"  ETV
vector 200  ApplicationClusteringImplementations.TemperatureSensorNode5.TemperatureSensor.SensingUnit  "Energy Consumptions"  ETV
vector 201  ApplicationClusteringImplementations.TemperatureSensorNode5.TemperatureSensor.SensingUnit  "Current use over time"  ETV
vector 202  ApplicationClusteringImplementations.TemperatureSensorNode5.TemperatureSensor.SignalConditioner  "Energy Consumptions"  ETV
vector 203  ApplicationClusteringImplementations.TemperatureSensorNode5.TemperatureSensor.SignalConditioner  "Current use over time"  ETV
vector 204  ApplicationClusteringImplementations.TemperatureSensorNode5.TemperatureSensor.SignalConverter  "Energy Consumptions"  ETV
vector 205  ApplicationClusteringImplementations.TemperatureSensorNode5.TemperatureSensor.SignalConverter  "Current use over time"  ETV
vector 206  ApplicationClusteringImplementations.TemperatureSensorNode5.TemperatureSensor.Transducer  "Energy Consumptions"  ETV
vector 207  ApplicationClusteringImplementations.TemperatureSensorNode5.TemperatureSensor.Transducer  "Current use over time"  ETV
vector 208  ApplicationClusteringImplementations.TemperatureSensorNode5.Memory  "Energy Consumptions"  ETV
vector 209  ApplicationClusteringImplementations.TemperatureSensorNode5.Memory  "Current use over time"  ETV
vector 217  ApplicationClusteringImplementations.TemperatureSensorNode6.TemperatureSensor.SensingUnit  "Energy Consumptions"  ETV
vector 218  ApplicationClusteringImplementations.TemperatureSensorNode6.TemperatureSensor.SensingUnit  "Current use over time"  ETV
vector 219  ApplicationClusteringImplementations.TemperatureSensorNode6.TemperatureSensor.SignalConditioner  "Energy Consumptions"  ETV
vector 220  ApplicationClusteringImplementations.TemperatureSensorNode6.TemperatureSensor.SignalConditioner  "Current use over time"  ETV
vector 221  ApplicationClusteringImplementations.TemperatureSensorNode6.TemperatureSensor.SignalConverter  "Energy Consumptions"  ETV
vector 222  ApplicationClusteringImplementations.TemperatureSensorNode6.TemperatureSensor.SignalConverter  "Current use over time"  ETV
vector 223  ApplicationClusteringImplementations.TemperatureSensorNode6.TemperatureSensor.Transducer  "Energy Consumptions"  ETV
vector 224  ApplicationClusteringImplementations.TemperatureSensorNode6.TemperatureSensor.Transducer  "Current use over time"  ETV
vector 225  ApplicationClusteringImplementations.TemperatureSensorNode6.Memory  "Energy Consumptions"  ETV
vector 226  ApplicationClusteringImplementations.TemperatureSensorNode6.Memory  "Current use over time"  ETV
vector 234  ApplicationClusteringImplementations.TemperatureSensorNode7.TemperatureSensor.SensingUnit  "Energy Consumptions"  ETV
vector 235  ApplicationClusteringImplementations.TemperatureSensorNode7.TemperatureSensor.SensingUnit  "Current use over time"  ETV
vector 236  ApplicationClusteringImplementations.TemperatureSensorNode7.TemperatureSensor.SignalConditioner  "Energy Consumptions"  ETV
vector 237  ApplicationClusteringImplementations.TemperatureSensorNode7.TemperatureSensor.SignalConditioner  "Current use over time"  ETV
vector 238  ApplicationClusteringImplementations.TemperatureSensorNode7.TemperatureSensor.SignalConverter  "Energy Consumptions"  ETV
vector 239  ApplicationClusteringImplementations.TemperatureSensorNode7.TemperatureSensor.SignalConverter  "Current use over time"  ETV
vector 240  ApplicationClusteringImplementations.TemperatureSensorNode7.TemperatureSensor.Transducer  "Energy Consumptions"  ETV
vector 241  ApplicationClusteringImplementations.TemperatureSensorNode7.TemperatureSensor.Transducer  "Current use over time"  ETV
vector 242  ApplicationClusteringImplementations.TemperatureSensorNode7.Memory  "Energy Consumptions"  ETV
vector 243  ApplicationClusteringImplementations.TemperatureSensorNode7.Memory  "Current use over time"  ETV
vector 251  ApplicationClusteringImplementations.TemperatureSensorNode8.TemperatureSensor.SensingUnit  "Energy Consumptions"  ETV
vector 252  ApplicationClusteringImplementations.TemperatureSensorNode8.TemperatureSensor.SensingUnit  "Current use over time"  ETV
vector 253  ApplicationClusteringImplementations.TemperatureSensorNode8.TemperatureSensor.SignalConditioner  "Energy Consumptions"  ETV
vector 254  ApplicationClusteringImplementations.TemperatureSensorNode8.TemperatureSensor.SignalConditioner  "Current use over time"  ETV
vector 255  ApplicationClusteringImplementations.TemperatureSensorNode8.TemperatureSensor.SignalConverter  "Energy Consumptions"  ETV
vector 256  ApplicationClusteringImplementations.TemperatureSensorNode8.TemperatureSensor.SignalConverter  "Current use over time"  ETV
vector 257  ApplicationClusteringImplementations.TemperatureSensorNode8.TemperatureSensor.Transducer  "Energy Consumptions"  ETV
vector 258  ApplicationClusteringImplementations.TemperatureSensorNode8.TemperatureSensor.Transducer  "Current use over time"  ETV
vector 259  ApplicationClusteringImplementations.TemperatureSensorNode8.Memory  "Energy Consumptions"  ETV
vector 260  ApplicationClusteringImplementations.TemperatureSensorNode8.Memory  "Current use over time"  ETV
7	0	0	0
7	0	0	0
8	0	0	0
9	0	0	3
10	0	0	1
11	0	0	10800000
19	0	0	0
19	0	0	0
20	0	0	0
21	0	0	3
22	0	0	1
23	0	0	10800000
31	0	0	0
31	0	0	0
32	0	0	0
33	0	0	3
34	0	0	1
35	0	0	10800000
43	0	0	0
43	0	0	0
44	0	0	0
45	0	0	3
46	0	0	1
47	0	0	10800000
55	0	0	0
55	0	0	0
56	0	0	0
57	0	0	3
58	0	0	1
59	0	0	10800000
67	0	0	0
67	0	0	0
68	0	0	0
69	0	0	3
70	0	0	1
71	0	0	10800000
79	0	0	0
79	0	0	0
80	0	0	0
81	0	0	3
82	0	0	1
83	0	0	10800000
91	0	0	0
91	0	0	0
92	0	0	0
93	0	0	3
94	0	0	1
95	0	0	10800000
103	0	0	0
103	0	0	0
104	0	0	0
105	0	0	3
106	0	0	1
107	0	0	10800000
115	0	0	100
115	0	0	100
115	0	0	100
116	0	0	3
117	0	0	100
118	0	0	3
119	0	0	100
120	0	0	3
121	0	0	100
122	0	0	3
123	0	0	100
124	0	0	3
132	0	0	100
132	0	0	100
132	0	0	100
133	0	0	3
134	0	0	100
135	0	0	3
136	0	0	100
137	0	0	3
138	0	0	100
139	0	0	3
140	0	0	100
141	0	0	3
149	0	0	100
149	0	0	100
149	0	0	100
150	0	0	3
151	0	0	100
152	0	0	3
153	0	0	100
154	0	0	3
155	0	0	100
156	0	0	3
157	0	0	100
158	0	0	3
166	0	0	100
166	0	0	100
166	0	0	100
167	0	0	3
168	0	0	100
169	0	0	3
170	0	0	100
171	0	0	3
172	0	0	100
173	0	0	3
174	0	0	100
175	0	0	3
183	0	0	100
183	0	0	100
183	0	0	100
184	0	0	3
185	0	0	100
186	0	0	3
187	0	0	100
188	0	0	3
189	0	0	100
190	0	0	3
191	0	0	100
192	0	0	3
200	0	0	100
200	0	0	100
200	0	0	100
201	0	0	3
202	0	0	100
203	0	0	3
204	0	0	100
205	0	0	3
206	0	0	100
207	0	0	3
208	0	0	100
209	0	0	3
217	0	0	100
217	0	0	100
217	0	0	100
218	0	0	3
219	0	0	100
220	0	0	3
221	0	0	100
222	0	0	3
223	0	0	100
224	0	0	3
225	0	0	100
226	0	0	3
234	0	0	100
234	0	0	100
234	0	0	100
235	0	0	3
236	0	0	100
237	0	0	3
238	0	0	100
239	0	0	3
240	0	0	100
241	0	0	3
242	0	0	100
243	0	0	3
251	0	0	100
251	0	0	100
251	0	0	100
252	0	0	3
253	0	0	100
254	0	0	3
255	0	0	100
256	0	0	3
257	0	0	100
258	0	0	3
259	0	0	100
260	0	0	3
