version 2
run General-0-20150511-11:28:19-3875
attr configname General
attr datetime 20150511-11:28:19
attr experiment General
attr inifile omnetpp.ini
attr iterationvars ""
attr iterationvars2 $repetition=0
attr measurement ""
attr network example1
attr processid 3875
attr repetition 0
attr replication #0
attr resultdir results
attr runnumber 0
attr seedset 0

vector 3  example1.SensorNode[0].Processor  Voltage  ETV
vector 4  example1.SensorNode[0].Processor  residualRelative  ETV
vector 5  example1.SensorNode[0].Processor  residualAbs  ETV
vector 9  example1.SensorNode[1].Processor  Voltage  ETV
vector 10  example1.SensorNode[1].Processor  residualRelative  ETV
vector 11  example1.SensorNode[1].Processor  residualAbs  ETV
vector 15  example1.SensorNode[2].Processor  Voltage  ETV
vector 16  example1.SensorNode[2].Processor  residualRelative  ETV
vector 17  example1.SensorNode[2].Processor  residualAbs  ETV
vector 21  example1.SensorNode[3].Processor  Voltage  ETV
vector 22  example1.SensorNode[3].Processor  residualRelative  ETV
vector 23  example1.SensorNode[3].Processor  residualAbs  ETV
vector 27  example1.TempNode[0].Processor  Voltage  ETV
vector 28  example1.TempNode[0].Processor  residualRelative  ETV
vector 29  example1.TempNode[0].Processor  residualAbs  ETV
vector 33  example1.TempNode[1].Processor  Voltage  ETV
vector 34  example1.TempNode[1].Processor  residualRelative  ETV
vector 35  example1.TempNode[1].Processor  residualAbs  ETV
vector 39  example1.TempNode[2].Processor  Voltage  ETV
vector 40  example1.TempNode[2].Processor  residualRelative  ETV
vector 41  example1.TempNode[2].Processor  residualAbs  ETV
vector 45  example1.TempNode[3].Processor  Voltage  ETV
vector 46  example1.TempNode[3].Processor  residualRelative  ETV
vector 47  example1.TempNode[3].Processor  residualAbs  ETV
vector 51  example1.AllNode[0].Processor  Voltage  ETV
vector 52  example1.AllNode[0].Processor  residualRelative  ETV
vector 53  example1.AllNode[0].Processor  residualAbs  ETV
vector 57  example1.AllNode[1].Processor  Voltage  ETV
vector 58  example1.AllNode[1].Processor  residualRelative  ETV
vector 59  example1.AllNode[1].Processor  residualAbs  ETV
vector 63  example1.AllNode[2].Processor  Voltage  ETV
vector 64  example1.AllNode[2].Processor  residualRelative  ETV
vector 65  example1.AllNode[2].Processor  residualAbs  ETV
vector 69  example1.AllNode[3].Processor  Voltage  ETV
vector 70  example1.AllNode[3].Processor  residualRelative  ETV
vector 71  example1.AllNode[3].Processor  residualAbs  ETV
3	0	0	3
4	0	0	1
5	0	0	10800000
9	0	0	3
10	0	0	1
11	0	0	10800000
15	0	0	3
16	0	0	1
17	0	0	10800000
21	0	0	3
22	0	0	1
23	0	0	10800000
27	0	0	3
27	61	0	3
27	61	0	3
28	0	0	1
28	61	0	0.9999537037037
28	61	0	0.99993518518519
29	0	0	10800000
29	61	0	10799500
29	61	0	10799300
33	0	0	3
33	62	0	3
33	62	0	3
34	0	0	1
34	62	0	0.9999537037037
34	62	0	0.99993518518519
35	0	0	10800000
35	62	0	10799500
35	62	0	10799300
39	0	0	3
39	63	0	3
39	63	0	3
40	0	0	1
40	63	0	0.9999537037037
40	63	0	0.99993518518519
41	0	0	10800000
41	63	0	10799500
41	63	0	10799300
45	0	0	3
45	64	0	3
45	64	0	3
46	0	0	1
46	64	0	0.9999537037037
46	64	0	0.99993518518519
47	0	0	10800000
47	64	0	10799500
47	64	0	10799300
51	0	0	3
51	65	0	3
51	65	0	3
51	66	0	3
51	66	0	3
51	67	0	3
51	67	0	3
51	68	0	3
51	68	0	3
52	0	0	1
52	65	0	0.99981481481481
52	65	0	0.9997962962963
52	66	0	0.9997962962963
52	66	0	0.99977777777778
52	67	0	0.99977777777778
52	67	0	0.99975925925926
52	68	0	0.99975925925926
52	68	0	0.99974074074074
53	0	0	10800000
53	65	0	10798000
53	65	0	10797800
53	66	0	10797800
53	66	0	10797600
53	67	0	10797600
53	67	0	10797400
53	68	0	10797400
53	68	0	10797200
57	0	0	3
57	69	0	3
57	69	0	3
57	70	0	3
57	70	0	3
57	71	0	3
57	71	0	3
57	72	0	3
57	72	0	3
58	0	0	1
58	69	0	0.99981481481481
58	69	0	0.9997962962963
58	70	0	0.9997962962963
58	70	0	0.99977777777778
58	71	0	0.99977777777778
58	71	0	0.99975925925926
58	72	0	0.99975925925926
58	72	0	0.99974074074074
59	0	0	10800000
59	69	0	10798000
59	69	0	10797800
59	70	0	10797800
59	70	0	10797600
59	71	0	10797600
59	71	0	10797400
59	72	0	10797400
59	72	0	10797200
63	0	0	3
63	73	0	3
63	73	0	3
63	74	0	3
63	74	0	3
63	75	0	3
63	75	0	3
63	76	0	3
63	76	0	3
64	0	0	1
64	73	0	0.99981481481481
64	73	0	0.9997962962963
64	74	0	0.9997962962963
64	74	0	0.99977777777778
64	75	0	0.99977777777778
64	75	0	0.99975925925926
64	76	0	0.99975925925926
64	76	0	0.99974074074074
65	0	0	10800000
65	73	0	10798000
65	73	0	10797800
65	74	0	10797800
65	74	0	10797600
65	75	0	10797600
65	75	0	10797400
65	76	0	10797400
65	76	0	10797200
69	0	0	3
69	77	0	3
69	77	0	3
69	78	0	3
69	78	0	3
69	79	0	3
69	79	0	3
69	80	0	3
69	80	0	3
70	0	0	1
70	77	0	0.99981481481481
70	77	0	0.9997962962963
70	78	0	0.9997962962963
70	78	0	0.99977777777778
70	79	0	0.99977777777778
70	79	0	0.99975925925926
70	80	0	0.99975925925926
70	80	0	0.99974074074074
71	0	0	10800000
71	77	0	10798000
71	77	0	10797800
71	78	0	10797800
71	78	0	10797600
71	79	0	10797600
71	79	0	10797400
71	80	0	10797400
71	80	0	10797200
