version 2
run General-0-20150506-09:27:03-12156
attr configname General
attr datetime 20150506-09:27:03
attr experiment General
attr inifile omnetpp.ini
attr iterationvars ""
attr iterationvars2 $repetition=0
attr measurement ""
attr network example1
attr processid 12156
attr repetition 0
attr replication #0
attr resultdir results
attr runnumber 0
attr seedset 0

vector 3  example1.SensorNode[0].Processor  Voltage  ETV
vector 4  example1.SensorNode[0].Processor  residualRelative  ETV
vector 5  example1.SensorNode[0].Processor  residualAbs  ETV
vector 9  example1.SensorNode[1].Processor  Voltage  ETV
vector 10  example1.SensorNode[1].Processor  residualRelative  ETV
vector 11  example1.SensorNode[1].Processor  residualAbs  ETV
vector 15  example1.SensorNode[2].Processor  Voltage  ETV
vector 16  example1.SensorNode[2].Processor  residualRelative  ETV
vector 17  example1.SensorNode[2].Processor  residualAbs  ETV
vector 21  example1.SensorNode[3].Processor  Voltage  ETV
vector 22  example1.SensorNode[3].Processor  residualRelative  ETV
vector 23  example1.SensorNode[3].Processor  residualAbs  ETV
vector 27  example1.TempNode[0].Processor  Voltage  ETV
vector 28  example1.TempNode[0].Processor  residualRelative  ETV
vector 29  example1.TempNode[0].Processor  residualAbs  ETV
vector 33  example1.TempNode[1].Processor  Voltage  ETV
vector 34  example1.TempNode[1].Processor  residualRelative  ETV
vector 35  example1.TempNode[1].Processor  residualAbs  ETV
vector 39  example1.TempNode[2].Processor  Voltage  ETV
vector 40  example1.TempNode[2].Processor  residualRelative  ETV
vector 41  example1.TempNode[2].Processor  residualAbs  ETV
vector 45  example1.TempNode[3].Processor  Voltage  ETV
vector 46  example1.TempNode[3].Processor  residualRelative  ETV
vector 47  example1.TempNode[3].Processor  residualAbs  ETV
vector 51  example1.AllNode[0].Processor  Voltage  ETV
vector 52  example1.AllNode[0].Processor  residualRelative  ETV
vector 53  example1.AllNode[0].Processor  residualAbs  ETV
vector 57  example1.AllNode[1].Processor  Voltage  ETV
vector 58  example1.AllNode[1].Processor  residualRelative  ETV
vector 59  example1.AllNode[1].Processor  residualAbs  ETV
vector 63  example1.AllNode[2].Processor  Voltage  ETV
vector 64  example1.AllNode[2].Processor  residualRelative  ETV
vector 65  example1.AllNode[2].Processor  residualAbs  ETV
vector 69  example1.AllNode[3].Processor  Voltage  ETV
vector 70  example1.AllNode[3].Processor  residualRelative  ETV
vector 71  example1.AllNode[3].Processor  residualAbs  ETV
3	0	0	3
3	1085	2500	3
3	1085	2500	3
3	2105	5000	3
3	2105	5000	3
3	2105	5000	3
3	4117	10000	3
3	4117	10000	3
3	4117	10000	3
3	5257	12500	3
3	5257	12500	3
3	5461	13000	3
3	5461	13000	3
3	6265	15000	3
3	6265	15000	3
3	6265	15000	3
3	6493	15500	3
3	6493	15500	3
3	8313	20000	3
3	8313	20000	3
3	8313	20000	3
3	10437	25000	3
3	10437	25000	3
3	10437	25000	3
3	10641	25500	3
3	10641	25500	3
3	10869	26000	3
3	10869	26000	3
3	11865	28500	3
3	11865	28500	3
3	12485	30000	3
3	12485	30000	3
3	12485	30000	3
3	14633	35000	3
3	14633	35000	3
3	14633	35000	3
3	16037	38500	3
3	16037	38500	3
3	16241	39000	3
3	16241	39000	3
3	16669	40000	3
3	16669	40000	3
3	16669	40000	3
3	17401	41500	3
3	17401	41500	3
3	18805	45000	3
3	18805	45000	3
3	18805	45000	3
3	20841	50000	3
3	20841	50000	3
3	20841	50000	3
3	21573	51500	3
3	21573	51500	3
3	21777	52000	3
3	21777	52000	3
3	22797	54500	3
3	22797	54500	3
3	23001	55000	3
3	23001	55000	3
3	23001	55000	3
3	25013	60000	3
3	25013	60000	3
3	25013	60000	3
3	26945	64500	3
3	26945	64500	3
3	27173	65000	3
3	27173	65000	3
3	27173	65000	3
3	27185	65000	3
3	27185	65000	3
3	28181	67500	3
3	28181	67500	3
3	29209	70000	3
3	29209	70000	3
3	29209	70000	3
3	31333	75000	3
3	31333	75000	3
3	31333	75000	3
3	32353	77500	3
3	32353	77500	3
3	32557	78000	3
3	32557	78000	3
3	33393	80000	3
3	33393	80000	3
3	33393	80000	3
3	33717	80500	3
3	33717	80500	3
3	35529	85000	3
3	35529	85000	3
3	35529	85000	3
3	37541	90000	3
3	37541	90000	3
3	37541	90000	3
3	37889	90500	3
3	37889	90500	3
3	38093	91000	3
3	38093	91000	3
3	39113	93500	3
3	39113	93500	3
3	39725	95000	3
3	39725	95000	3
3	39725	95000	3
3	41737	100000	3
3	41737	100000	3
3	41737	100000	3
3	43261	103500	3
3	43261	103500	3
3	43489	104000	3
3	43489	104000	3
3	43885	105000	3
3	43885	105000	3
3	43885	105000	3
3	44497	106500	3
3	44497	106500	3
3	45933	110000	3
3	45933	110000	3
3	45933	110000	3
3	48057	115000	3
3	48057	115000	3
3	48057	115000	3
3	48669	116500	3
3	48669	116500	3
3	48873	117000	3
3	48873	117000	3
3	49893	119500	3
3	49893	119500	3
3	50105	120000	3
3	50105	120000	3
3	50105	120000	3
4	0	0	1
4	1085	2500	0.98428333333333
4	1085	2500	0.98400925925926
4	2105	5000	0.9831137037037
4	2105	5000	0.98309259259259
4	2105	5000	0.98309259259259
4	4117	10000	0.98130148148148
4	4117	10000	0.98127314814815
4	4117	10000	0.98127314814815
4	5257	12500	0.98037759259259
4	5257	12500	0.98035648148148
4	5461	13000	0.96719537037037
4	5461	13000	0.96602777777778
4	6265	15000	0.95363333333333
4	6265	15000	0.95323148148148
4	6265	15000	0.95323148148148
4	6493	15500	0.95016481481481
4	6493	15500	0.95001851851852
4	8313	20000	0.94840074074074
4	8313	20000	0.94837962962963
4	8313	20000	0.94837962962963
4	10437	25000	0.94658851851852
4	10437	25000	0.94656018518519
4	10437	25000	0.94656018518519
4	10641	25500	0.9464012962963
4	10641	25500	0.94636574074074
4	10869	26000	0.93263240740741
4	10869	26000	0.93203703703704
4	11865	28500	0.91644814814815
4	11865	28500	0.9160462962963
4	12485	30000	0.9155262962963
4	12485	30000	0.91549074074074
4	12485	30000	0.91549074074074
4	14633	35000	0.91369240740741
4	14633	35000	0.9136712962963
4	14633	35000	0.9136712962963
4	16037	38500	0.91242185185185
4	16037	38500	0.91239351851852
4	16241	39000	0.89980462962963
4	16241	39000	0.89806481481481
4	16669	40000	0.89193148148148
4	16669	40000	0.89165740740741
4	16669	40000	0.89165740740741
4	17401	41500	0.88232962962963
4	17401	41500	0.88205555555556
4	18805	45000	0.88081333333333
4	18805	45000	0.88077777777778
4	18805	45000	0.88077777777778
4	20841	50000	0.87897944444444
4	20841	50000	0.87895833333333
4	20841	50000	0.87895833333333
4	21573	51500	0.87842388888889
4	21573	51500	0.87840277777778
4	21777	52000	0.86524166666667
4	21777	52000	0.86407407407407
4	22797	54500	0.84822962962963
4	22797	54500	0.84808333333333
4	23001	55000	0.84791722222222
4	23001	55000	0.84788888888889
4	23001	55000	0.84788888888889
4	25013	60000	0.846105
4	25013	60000	0.84606944444444
4	25013	60000	0.84606944444444
4	26945	64500	0.84446611111111
4	26945	64500	0.84443055555556
4	27173	65000	0.83069722222222
4	27173	65000	0.83010185185185
4	27173	65000	0.83010185185185
4	27185	65000	0.83010185185185
4	27185	65000	0.8300787037037
4	28181	67500	0.81448981481481
4	28181	67500	0.81408796296296
4	29209	70000	0.81319962962963
4	29209	70000	0.8131712962963
4	29209	70000	0.8131712962963
4	31333	75000	0.81138740740741
4	31333	75000	0.81135185185185
4	31333	75000	0.81135185185185
4	32353	77500	0.81046351851852
4	32353	77500	0.81043518518519
4	32557	78000	0.7978462962963
4	32557	78000	0.79610648148148
4	33393	80000	0.78345648148148
4	33393	80000	0.78331018518519
4	33393	80000	0.78331018518519
4	33717	80500	0.7803712962963
4	33717	80500	0.78009722222222
4	35529	85000	0.77848666666667
4	35529	85000	0.77845833333333
4	35529	85000	0.77845833333333
4	37541	90000	0.77667444444444
4	37541	90000	0.77663888888889
4	37541	90000	0.77663888888889
4	37889	90500	0.77646555555556
4	37889	90500	0.77644444444444
4	38093	91000	0.76328333333333
4	38093	91000	0.76211574074074
4	39113	93500	0.7462712962963
4	39113	93500	0.746125
4	39725	95000	0.74559055555556
4	39725	95000	0.74556944444444
4	39725	95000	0.74556944444444
4	41737	100000	0.74377833333333
4	41737	100000	0.74375
4	41737	100000	0.74375
4	43261	103500	0.74250777777778
4	43261	103500	0.74247222222222
4	43489	104000	0.72873888888889
4	43489	104000	0.72814351851852
4	43885	105000	0.72213796296296
4	43885	105000	0.72173611111111
4	43885	105000	0.72173611111111
4	44497	106500	0.71253611111111
4	44497	106500	0.71213425925926
4	45933	110000	0.71087759259259
4	45933	110000	0.71085648148148
4	45933	110000	0.71085648148148
4	48057	115000	0.70906537037037
4	48057	115000	0.70903703703704
4	48057	115000	0.70903703703704
4	48669	116500	0.70850981481481
4	48669	116500	0.70848148148148
4	48873	117000	0.69589259259259
4	48873	117000	0.69415277777778
4	49893	119500	0.67843611111111
4	49893	119500	0.67816203703704
4	50105	120000	0.67800314814815
4	50105	120000	0.67796759259259
4	50105	120000	0.67796759259259
5	0	0	10800000
5	1085	2500	10630260
5	1085	2500	10627300
5	2105	5000	10617628
5	2105	5000	10617400
5	2105	5000	10617400
5	4117	10000	10598056
5	4117	10000	10597750
5	4117	10000	10597750
5	5257	12500	10588078
5	5257	12500	10587850
5	5461	13000	10445710
5	5461	13000	10433100
5	6265	15000	10299240
5	6265	15000	10294900
5	6265	15000	10294900
5	6493	15500	10261780
5	6493	15500	10260200
5	8313	20000	10242728
5	8313	20000	10242500
5	8313	20000	10242500
5	10437	25000	10223156
5	10437	25000	10222850
5	10437	25000	10222850
5	10641	25500	10221134
5	10641	25500	10220750
5	10869	26000	10072430
5	10869	26000	10066000
5	11865	28500	9897640
5	11865	28500	9893300
5	12485	30000	9887684
5	12485	30000	9887300
5	12485	30000	9887300
5	14633	35000	9867878
5	14633	35000	9867650
5	14633	35000	9867650
5	16037	38500	9854156
5	16037	38500	9853850
5	16241	39000	9717890
5	16241	39000	9699100
5	16669	40000	9632860
5	16669	40000	9629900
5	16669	40000	9629900
5	17401	41500	9529160
5	17401	41500	9526200
5	18805	45000	9512784
5	18805	45000	9512400
5	18805	45000	9512400
5	20841	50000	9492978
5	20841	50000	9492750
5	20841	50000	9492750
5	21573	51500	9486978
5	21573	51500	9486750
5	21777	52000	9344610
5	21777	52000	9332000
5	22797	54500	9160880
5	22797	54500	9159300
5	23001	55000	9157506
5	23001	55000	9157200
5	23001	55000	9157200
5	25013	60000	9137934
5	25013	60000	9137550
5	25013	60000	9137550
5	26945	64500	9120234
5	26945	64500	9119850
5	27173	65000	8971530
5	27173	65000	8965100
5	27173	65000	8965100
5	27185	65000	8965100
5	27185	65000	8964850
5	28181	67500	8796490
5	28181	67500	8792150
5	29209	70000	8782556
5	29209	70000	8782250
5	29209	70000	8782250
5	31333	75000	8762984
5	31333	75000	8762600
5	31333	75000	8762600
5	32353	77500	8753006
5	32353	77500	8752700
5	32557	78000	8616740
5	32557	78000	8597950
5	33393	80000	8461330
5	33393	80000	8459750
5	33393	80000	8459750
5	33717	80500	8428010
5	33717	80500	8425050
5	35529	85000	8407656
5	35529	85000	8407350
5	35529	85000	8407350
5	37541	90000	8388084
5	37541	90000	8387700
5	37541	90000	8387700
5	37889	90500	8385828
5	37889	90500	8385600
5	38093	91000	8243460
5	38093	91000	8230850
5	39113	93500	8059730
5	39113	93500	8058150
5	39725	95000	8052378
5	39725	95000	8052150
5	39725	95000	8052150
5	41737	100000	8032806
5	41737	100000	8032500
5	41737	100000	8032500
5	43261	103500	8019084
5	43261	103500	8018700
5	43489	104000	7870380
5	43489	104000	7863950
5	43885	105000	7799090
5	43885	105000	7794750
5	43885	105000	7794750
5	44497	106500	7695390
5	44497	106500	7691050
5	45933	110000	7677478
5	45933	110000	7677250
5	45933	110000	7677250
5	48057	115000	7657906
5	48057	115000	7657600
5	48057	115000	7657600
5	48669	116500	7651906
5	48669	116500	7651600
5	48873	117000	7515640
5	48873	117000	7496850
5	49893	119500	7327110
5	49893	119500	7324150
5	50105	120000	7322434
5	50105	120000	7322050
5	50105	120000	7322050
9	0	0	3
9	1086	2500	3
9	1086	2500	3
9	2106	5000	3
9	2106	5000	3
9	2106	5000	3
9	4118	10000	3
9	4118	10000	3
9	4118	10000	3
9	5258	12500	3
9	5258	12500	3
9	5462	13000	3
9	5462	13000	3
9	6266	15000	3
9	6266	15000	3
9	6266	15000	3
9	6494	15500	3
9	6494	15500	3
9	8314	20000	3
9	8314	20000	3
9	8314	20000	3
9	10438	25000	3
9	10438	25000	3
9	10438	25000	3
9	10642	25500	3
9	10642	25500	3
9	10870	26000	3
9	10870	26000	3
9	11866	28500	3
9	11866	28500	3
9	12486	30000	3
9	12486	30000	3
9	12486	30000	3
9	14634	35000	3
9	14634	35000	3
9	14634	35000	3
9	16038	38500	3
9	16038	38500	3
9	16242	39000	3
9	16242	39000	3
9	16670	40000	3
9	16670	40000	3
9	16670	40000	3
9	17402	41500	3
9	17402	41500	3
9	18806	45000	3
9	18806	45000	3
9	18806	45000	3
9	20842	50000	3
9	20842	50000	3
9	20842	50000	3
9	21574	51500	3
9	21574	51500	3
9	21778	52000	3
9	21778	52000	3
9	22798	54500	3
9	22798	54500	3
9	23002	55000	3
9	23002	55000	3
9	23002	55000	3
9	25014	60000	3
9	25014	60000	3
9	25014	60000	3
9	26946	64500	3
9	26946	64500	3
9	27174	65000	3
9	27174	65000	3
9	27174	65000	3
9	27186	65000	3
9	27186	65000	3
9	28182	67500	3
9	28182	67500	3
9	29210	70000	3
9	29210	70000	3
9	29210	70000	3
9	31334	75000	3
9	31334	75000	3
9	31334	75000	3
9	32354	77500	3
9	32354	77500	3
9	32558	78000	3
9	32558	78000	3
9	33394	80000	3
9	33394	80000	3
9	33394	80000	3
9	33718	80500	3
9	33718	80500	3
9	35530	85000	3
9	35530	85000	3
9	35530	85000	3
9	37542	90000	3
9	37542	90000	3
9	37542	90000	3
9	37890	90500	3
9	37890	90500	3
9	38094	91000	3
9	38094	91000	3
9	39114	93500	3
9	39114	93500	3
9	39726	95000	3
9	39726	95000	3
9	39726	95000	3
9	41738	100000	3
9	41738	100000	3
9	41738	100000	3
9	43262	103500	3
9	43262	103500	3
9	43490	104000	3
9	43490	104000	3
9	43886	105000	3
9	43886	105000	3
9	43886	105000	3
9	44498	106500	3
9	44498	106500	3
9	45934	110000	3
9	45934	110000	3
9	45934	110000	3
9	48058	115000	3
9	48058	115000	3
9	48058	115000	3
9	48670	116500	3
9	48670	116500	3
9	48874	117000	3
9	48874	117000	3
9	49894	119500	3
9	49894	119500	3
9	50106	120000	3
9	50106	120000	3
9	50106	120000	3
10	0	0	1
10	1086	2500	0.98428333333333
10	1086	2500	0.98400925925926
10	2106	5000	0.9831137037037
10	2106	5000	0.98309259259259
10	2106	5000	0.98309259259259
10	4118	10000	0.98130148148148
10	4118	10000	0.98127314814815
10	4118	10000	0.98127314814815
10	5258	12500	0.98037759259259
10	5258	12500	0.98035648148148
10	5462	13000	0.96719537037037
10	5462	13000	0.96602777777778
10	6266	15000	0.95363333333333
10	6266	15000	0.95323148148148
10	6266	15000	0.95323148148148
10	6494	15500	0.95016481481481
10	6494	15500	0.95001851851852
10	8314	20000	0.94840074074074
10	8314	20000	0.94837962962963
10	8314	20000	0.94837962962963
10	10438	25000	0.94658851851852
10	10438	25000	0.94656018518519
10	10438	25000	0.94656018518519
10	10642	25500	0.9464012962963
10	10642	25500	0.94636574074074
10	10870	26000	0.93263240740741
10	10870	26000	0.93203703703704
10	11866	28500	0.91644814814815
10	11866	28500	0.9160462962963
10	12486	30000	0.9155262962963
10	12486	30000	0.91549074074074
10	12486	30000	0.91549074074074
10	14634	35000	0.91369240740741
10	14634	35000	0.9136712962963
10	14634	35000	0.9136712962963
10	16038	38500	0.91242185185185
10	16038	38500	0.91239351851852
10	16242	39000	0.89980462962963
10	16242	39000	0.89806481481481
10	16670	40000	0.89193148148148
10	16670	40000	0.89165740740741
10	16670	40000	0.89165740740741
10	17402	41500	0.88232962962963
10	17402	41500	0.88205555555556
10	18806	45000	0.88081333333333
10	18806	45000	0.88077777777778
10	18806	45000	0.88077777777778
10	20842	50000	0.87897944444444
10	20842	50000	0.87895833333333
10	20842	50000	0.87895833333333
10	21574	51500	0.87842388888889
10	21574	51500	0.87840277777778
10	21778	52000	0.86524166666667
10	21778	52000	0.86407407407407
10	22798	54500	0.84822962962963
10	22798	54500	0.84808333333333
10	23002	55000	0.84791722222222
10	23002	55000	0.84788888888889
10	23002	55000	0.84788888888889
10	25014	60000	0.846105
10	25014	60000	0.84606944444444
10	25014	60000	0.84606944444444
10	26946	64500	0.84446611111111
10	26946	64500	0.84443055555556
10	27174	65000	0.83069722222222
10	27174	65000	0.83010185185185
10	27174	65000	0.83010185185185
10	27186	65000	0.83010185185185
10	27186	65000	0.8300787037037
10	28182	67500	0.81448981481481
10	28182	67500	0.81408796296296
10	29210	70000	0.81319962962963
10	29210	70000	0.8131712962963
10	29210	70000	0.8131712962963
10	31334	75000	0.81138740740741
10	31334	75000	0.81135185185185
10	31334	75000	0.81135185185185
10	32354	77500	0.81046351851852
10	32354	77500	0.81043518518519
10	32558	78000	0.7978462962963
10	32558	78000	0.79610648148148
10	33394	80000	0.78345648148148
10	33394	80000	0.78331018518519
10	33394	80000	0.78331018518519
10	33718	80500	0.7803712962963
10	33718	80500	0.78009722222222
10	35530	85000	0.77848666666667
10	35530	85000	0.77845833333333
10	35530	85000	0.77845833333333
10	37542	90000	0.77667444444444
10	37542	90000	0.77663888888889
10	37542	90000	0.77663888888889
10	37890	90500	0.77646555555556
10	37890	90500	0.77644444444444
10	38094	91000	0.76328333333333
10	38094	91000	0.76211574074074
10	39114	93500	0.7462712962963
10	39114	93500	0.746125
10	39726	95000	0.74559055555556
10	39726	95000	0.74556944444444
10	39726	95000	0.74556944444444
10	41738	100000	0.74377833333333
10	41738	100000	0.74375
10	41738	100000	0.74375
10	43262	103500	0.74250777777778
10	43262	103500	0.74247222222222
10	43490	104000	0.72873888888889
10	43490	104000	0.72814351851852
10	43886	105000	0.72213796296296
10	43886	105000	0.72173611111111
10	43886	105000	0.72173611111111
10	44498	106500	0.71253611111111
10	44498	106500	0.71213425925926
10	45934	110000	0.71087759259259
10	45934	110000	0.71085648148148
10	45934	110000	0.71085648148148
10	48058	115000	0.70906537037037
10	48058	115000	0.70903703703704
10	48058	115000	0.70903703703704
10	48670	116500	0.70850981481481
10	48670	116500	0.70848148148148
10	48874	117000	0.69589259259259
10	48874	117000	0.69415277777778
10	49894	119500	0.67843611111111
10	49894	119500	0.67816203703704
10	50106	120000	0.67800314814815
10	50106	120000	0.67796759259259
10	50106	120000	0.67796759259259
11	0	0	10800000
11	1086	2500	10630260
11	1086	2500	10627300
11	2106	5000	10617628
11	2106	5000	10617400
11	2106	5000	10617400
11	4118	10000	10598056
11	4118	10000	10597750
11	4118	10000	10597750
11	5258	12500	10588078
11	5258	12500	10587850
11	5462	13000	10445710
11	5462	13000	10433100
11	6266	15000	10299240
11	6266	15000	10294900
11	6266	15000	10294900
11	6494	15500	10261780
11	6494	15500	10260200
11	8314	20000	10242728
11	8314	20000	10242500
11	8314	20000	10242500
11	10438	25000	10223156
11	10438	25000	10222850
11	10438	25000	10222850
11	10642	25500	10221134
11	10642	25500	10220750
11	10870	26000	10072430
11	10870	26000	10066000
11	11866	28500	9897640
11	11866	28500	9893300
11	12486	30000	9887684
11	12486	30000	9887300
11	12486	30000	9887300
11	14634	35000	9867878
11	14634	35000	9867650
11	14634	35000	9867650
11	16038	38500	9854156
11	16038	38500	9853850
11	16242	39000	9717890
11	16242	39000	9699100
11	16670	40000	9632860
11	16670	40000	9629900
11	16670	40000	9629900
11	17402	41500	9529160
11	17402	41500	9526200
11	18806	45000	9512784
11	18806	45000	9512400
11	18806	45000	9512400
11	20842	50000	9492978
11	20842	50000	9492750
11	20842	50000	9492750
11	21574	51500	9486978
11	21574	51500	9486750
11	21778	52000	9344610
11	21778	52000	9332000
11	22798	54500	9160880
11	22798	54500	9159300
11	23002	55000	9157506
11	23002	55000	9157200
11	23002	55000	9157200
11	25014	60000	9137934
11	25014	60000	9137550
11	25014	60000	9137550
11	26946	64500	9120234
11	26946	64500	9119850
11	27174	65000	8971530
11	27174	65000	8965100
11	27174	65000	8965100
11	27186	65000	8965100
11	27186	65000	8964850
11	28182	67500	8796490
11	28182	67500	8792150
11	29210	70000	8782556
11	29210	70000	8782250
11	29210	70000	8782250
11	31334	75000	8762984
11	31334	75000	8762600
11	31334	75000	8762600
11	32354	77500	8753006
11	32354	77500	8752700
11	32558	78000	8616740
11	32558	78000	8597950
11	33394	80000	8461330
11	33394	80000	8459750
11	33394	80000	8459750
11	33718	80500	8428010
11	33718	80500	8425050
11	35530	85000	8407656
11	35530	85000	8407350
11	35530	85000	8407350
11	37542	90000	8388084
11	37542	90000	8387700
11	37542	90000	8387700
11	37890	90500	8385828
11	37890	90500	8385600
11	38094	91000	8243460
11	38094	91000	8230850
11	39114	93500	8059730
11	39114	93500	8058150
11	39726	95000	8052378
11	39726	95000	8052150
11	39726	95000	8052150
11	41738	100000	8032806
11	41738	100000	8032500
11	41738	100000	8032500
11	43262	103500	8019084
11	43262	103500	8018700
11	43490	104000	7870380
11	43490	104000	7863950
11	43886	105000	7799090
11	43886	105000	7794750
11	43886	105000	7794750
11	44498	106500	7695390
11	44498	106500	7691050
11	45934	110000	7677478
11	45934	110000	7677250
11	45934	110000	7677250
11	48058	115000	7657906
11	48058	115000	7657600
11	48058	115000	7657600
11	48670	116500	7651906
11	48670	116500	7651600
11	48874	117000	7515640
11	48874	117000	7496850
11	49894	119500	7327110
11	49894	119500	7324150
11	50106	120000	7322434
11	50106	120000	7322050
11	50106	120000	7322050
15	0	0	3
15	1087	2500	3
15	1087	2500	3
15	2107	5000	3
15	2107	5000	3
15	2107	5000	3
15	4119	10000	3
15	4119	10000	3
15	4119	10000	3
15	5259	12500	3
15	5259	12500	3
15	5463	13000	3
15	5463	13000	3
15	6267	15000	3
15	6267	15000	3
15	6267	15000	3
15	6495	15500	3
15	6495	15500	3
15	8315	20000	3
15	8315	20000	3
15	8315	20000	3
15	10439	25000	3
15	10439	25000	3
15	10439	25000	3
15	10643	25500	3
15	10643	25500	3
15	10871	26000	3
15	10871	26000	3
15	11867	28500	3
15	11867	28500	3
15	12487	30000	3
15	12487	30000	3
15	12487	30000	3
15	14635	35000	3
15	14635	35000	3
15	14635	35000	3
15	16039	38500	3
15	16039	38500	3
15	16243	39000	3
15	16243	39000	3
15	16671	40000	3
15	16671	40000	3
15	16671	40000	3
15	17403	41500	3
15	17403	41500	3
15	18807	45000	3
15	18807	45000	3
15	18807	45000	3
15	20843	50000	3
15	20843	50000	3
15	20843	50000	3
15	21575	51500	3
15	21575	51500	3
15	21779	52000	3
15	21779	52000	3
15	22799	54500	3
15	22799	54500	3
15	23003	55000	3
15	23003	55000	3
15	23003	55000	3
15	25015	60000	3
15	25015	60000	3
15	25015	60000	3
15	26947	64500	3
15	26947	64500	3
15	27175	65000	3
15	27175	65000	3
15	27175	65000	3
15	27187	65000	3
15	27187	65000	3
15	28183	67500	3
15	28183	67500	3
15	29211	70000	3
15	29211	70000	3
15	29211	70000	3
15	31335	75000	3
15	31335	75000	3
15	31335	75000	3
15	32355	77500	3
15	32355	77500	3
15	32559	78000	3
15	32559	78000	3
15	33395	80000	3
15	33395	80000	3
15	33395	80000	3
15	33719	80500	3
15	33719	80500	3
15	35531	85000	3
15	35531	85000	3
15	35531	85000	3
15	37543	90000	3
15	37543	90000	3
15	37543	90000	3
15	37891	90500	3
15	37891	90500	3
15	38095	91000	3
15	38095	91000	3
15	39115	93500	3
15	39115	93500	3
15	39727	95000	3
15	39727	95000	3
15	39727	95000	3
15	41739	100000	3
15	41739	100000	3
15	41739	100000	3
15	43263	103500	3
15	43263	103500	3
15	43491	104000	3
15	43491	104000	3
15	43887	105000	3
15	43887	105000	3
15	43887	105000	3
15	44499	106500	3
15	44499	106500	3
15	45935	110000	3
15	45935	110000	3
15	45935	110000	3
15	48059	115000	3
15	48059	115000	3
15	48059	115000	3
15	48671	116500	3
15	48671	116500	3
15	48875	117000	3
15	48875	117000	3
15	49895	119500	3
15	49895	119500	3
15	50107	120000	3
15	50107	120000	3
15	50107	120000	3
16	0	0	1
16	1087	2500	0.98428333333333
16	1087	2500	0.98400925925926
16	2107	5000	0.9831137037037
16	2107	5000	0.98309259259259
16	2107	5000	0.98309259259259
16	4119	10000	0.98130148148148
16	4119	10000	0.98127314814815
16	4119	10000	0.98127314814815
16	5259	12500	0.98037759259259
16	5259	12500	0.98035648148148
16	5463	13000	0.96719537037037
16	5463	13000	0.96602777777778
16	6267	15000	0.95363333333333
16	6267	15000	0.95323148148148
16	6267	15000	0.95323148148148
16	6495	15500	0.95016481481481
16	6495	15500	0.95001851851852
16	8315	20000	0.94840074074074
16	8315	20000	0.94837962962963
16	8315	20000	0.94837962962963
16	10439	25000	0.94658851851852
16	10439	25000	0.94656018518519
16	10439	25000	0.94656018518519
16	10643	25500	0.9464012962963
16	10643	25500	0.94636574074074
16	10871	26000	0.93263240740741
16	10871	26000	0.93203703703704
16	11867	28500	0.91644814814815
16	11867	28500	0.9160462962963
16	12487	30000	0.9155262962963
16	12487	30000	0.91549074074074
16	12487	30000	0.91549074074074
16	14635	35000	0.91369240740741
16	14635	35000	0.9136712962963
16	14635	35000	0.9136712962963
16	16039	38500	0.91242185185185
16	16039	38500	0.91239351851852
16	16243	39000	0.89980462962963
16	16243	39000	0.89806481481481
16	16671	40000	0.89193148148148
16	16671	40000	0.89165740740741
16	16671	40000	0.89165740740741
16	17403	41500	0.88232962962963
16	17403	41500	0.88205555555556
16	18807	45000	0.88081333333333
16	18807	45000	0.88077777777778
16	18807	45000	0.88077777777778
16	20843	50000	0.87897944444444
16	20843	50000	0.87895833333333
16	20843	50000	0.87895833333333
16	21575	51500	0.87842388888889
16	21575	51500	0.87840277777778
16	21779	52000	0.86524166666667
16	21779	52000	0.86407407407407
16	22799	54500	0.84822962962963
16	22799	54500	0.84808333333333
16	23003	55000	0.84791722222222
16	23003	55000	0.84788888888889
16	23003	55000	0.84788888888889
16	25015	60000	0.846105
16	25015	60000	0.84606944444444
16	25015	60000	0.84606944444444
16	26947	64500	0.84446611111111
16	26947	64500	0.84443055555556
16	27175	65000	0.83069722222222
16	27175	65000	0.83010185185185
16	27175	65000	0.83010185185185
16	27187	65000	0.83010185185185
16	27187	65000	0.8300787037037
16	28183	67500	0.81448981481481
16	28183	67500	0.81408796296296
16	29211	70000	0.81319962962963
16	29211	70000	0.8131712962963
16	29211	70000	0.8131712962963
16	31335	75000	0.81138740740741
16	31335	75000	0.81135185185185
16	31335	75000	0.81135185185185
16	32355	77500	0.81046351851852
16	32355	77500	0.81043518518519
16	32559	78000	0.7978462962963
16	32559	78000	0.79610648148148
16	33395	80000	0.78345648148148
16	33395	80000	0.78331018518519
16	33395	80000	0.78331018518519
16	33719	80500	0.7803712962963
16	33719	80500	0.78009722222222
16	35531	85000	0.77848666666667
16	35531	85000	0.77845833333333
16	35531	85000	0.77845833333333
16	37543	90000	0.77667444444444
16	37543	90000	0.77663888888889
16	37543	90000	0.77663888888889
16	37891	90500	0.77646555555556
16	37891	90500	0.77644444444444
16	38095	91000	0.76328333333333
16	38095	91000	0.76211574074074
16	39115	93500	0.7462712962963
16	39115	93500	0.746125
16	39727	95000	0.74559055555556
16	39727	95000	0.74556944444444
16	39727	95000	0.74556944444444
16	41739	100000	0.74377833333333
16	41739	100000	0.74375
16	41739	100000	0.74375
16	43263	103500	0.74250777777778
16	43263	103500	0.74247222222222
16	43491	104000	0.72873888888889
16	43491	104000	0.72814351851852
16	43887	105000	0.72213796296296
16	43887	105000	0.72173611111111
16	43887	105000	0.72173611111111
16	44499	106500	0.71253611111111
16	44499	106500	0.71213425925926
16	45935	110000	0.71087759259259
16	45935	110000	0.71085648148148
16	45935	110000	0.71085648148148
16	48059	115000	0.70906537037037
16	48059	115000	0.70903703703704
16	48059	115000	0.70903703703704
16	48671	116500	0.70850981481481
16	48671	116500	0.70848148148148
16	48875	117000	0.69589259259259
16	48875	117000	0.69415277777778
16	49895	119500	0.67843611111111
16	49895	119500	0.67816203703704
16	50107	120000	0.67800314814815
16	50107	120000	0.67796759259259
16	50107	120000	0.67796759259259
17	0	0	10800000
17	1087	2500	10630260
17	1087	2500	10627300
17	2107	5000	10617628
17	2107	5000	10617400
17	2107	5000	10617400
17	4119	10000	10598056
17	4119	10000	10597750
17	4119	10000	10597750
17	5259	12500	10588078
17	5259	12500	10587850
17	5463	13000	10445710
17	5463	13000	10433100
17	6267	15000	10299240
17	6267	15000	10294900
17	6267	15000	10294900
17	6495	15500	10261780
17	6495	15500	10260200
17	8315	20000	10242728
17	8315	20000	10242500
17	8315	20000	10242500
17	10439	25000	10223156
17	10439	25000	10222850
17	10439	25000	10222850
17	10643	25500	10221134
17	10643	25500	10220750
17	10871	26000	10072430
17	10871	26000	10066000
17	11867	28500	9897640
17	11867	28500	9893300
17	12487	30000	9887684
17	12487	30000	9887300
17	12487	30000	9887300
17	14635	35000	9867878
17	14635	35000	9867650
17	14635	35000	9867650
17	16039	38500	9854156
17	16039	38500	9853850
17	16243	39000	9717890
17	16243	39000	9699100
17	16671	40000	9632860
17	16671	40000	9629900
17	16671	40000	9629900
17	17403	41500	9529160
17	17403	41500	9526200
17	18807	45000	9512784
17	18807	45000	9512400
17	18807	45000	9512400
17	20843	50000	9492978
17	20843	50000	9492750
17	20843	50000	9492750
17	21575	51500	9486978
17	21575	51500	9486750
17	21779	52000	9344610
17	21779	52000	9332000
17	22799	54500	9160880
17	22799	54500	9159300
17	23003	55000	9157506
17	23003	55000	9157200
17	23003	55000	9157200
17	25015	60000	9137934
17	25015	60000	9137550
17	25015	60000	9137550
17	26947	64500	9120234
17	26947	64500	9119850
17	27175	65000	8971530
17	27175	65000	8965100
17	27175	65000	8965100
17	27187	65000	8965100
17	27187	65000	8964850
17	28183	67500	8796490
17	28183	67500	8792150
17	29211	70000	8782556
17	29211	70000	8782250
17	29211	70000	8782250
17	31335	75000	8762984
17	31335	75000	8762600
17	31335	75000	8762600
17	32355	77500	8753006
17	32355	77500	8752700
17	32559	78000	8616740
17	32559	78000	8597950
17	33395	80000	8461330
17	33395	80000	8459750
17	33395	80000	8459750
17	33719	80500	8428010
17	33719	80500	8425050
17	35531	85000	8407656
17	35531	85000	8407350
17	35531	85000	8407350
17	37543	90000	8388084
17	37543	90000	8387700
17	37543	90000	8387700
17	37891	90500	8385828
17	37891	90500	8385600
17	38095	91000	8243460
17	38095	91000	8230850
17	39115	93500	8059730
17	39115	93500	8058150
17	39727	95000	8052378
17	39727	95000	8052150
17	39727	95000	8052150
17	41739	100000	8032806
17	41739	100000	8032500
17	41739	100000	8032500
17	43263	103500	8019084
17	43263	103500	8018700
17	43491	104000	7870380
17	43491	104000	7863950
17	43887	105000	7799090
17	43887	105000	7794750
17	43887	105000	7794750
17	44499	106500	7695390
17	44499	106500	7691050
17	45935	110000	7677478
17	45935	110000	7677250
17	45935	110000	7677250
17	48059	115000	7657906
17	48059	115000	7657600
17	48059	115000	7657600
17	48671	116500	7651906
17	48671	116500	7651600
17	48875	117000	7515640
17	48875	117000	7496850
17	49895	119500	7327110
17	49895	119500	7324150
17	50107	120000	7322434
17	50107	120000	7322050
17	50107	120000	7322050
21	0	0	3
21	1088	2500	3
21	1088	2500	3
21	2108	5000	3
21	2108	5000	3
21	2108	5000	3
21	4120	10000	3
21	4120	10000	3
21	4120	10000	3
21	5260	12500	3
21	5260	12500	3
21	5464	13000	3
21	5464	13000	3
21	6268	15000	3
21	6268	15000	3
21	6268	15000	3