version 2
run General-0-20150513-12:19:47-7252
attr configname General
attr datetime 20150513-12:19:47
attr experiment General
attr inifile omnetpp.ini
attr iterationvars ""
attr iterationvars2 $repetition=0
attr measurement ""
attr network SleepVsNoSleep
attr processid 7252
attr repetition 0
attr replication #0
attr resultdir results
attr runnumber 0
attr seedset 0

vector 3  SleepVsNoSleep.SleepNode[0].Processor  "power mode"  ETV
vector 4  SleepVsNoSleep.SleepNode[0].Processor  Voltage  ETV
vector 5  SleepVsNoSleep.SleepNode[0].Processor  residualRelative  ETV
vector 6  SleepVsNoSleep.SleepNode[0].Processor  residualAbs  ETV
vector 10  SleepVsNoSleep.NoSleepNode[0].Processor  "power mode"  ETV
vector 11  SleepVsNoSleep.NoSleepNode[0].Processor  Voltage  ETV
vector 12  SleepVsNoSleep.NoSleepNode[0].Processor  residualRelative  ETV
vector 13  SleepVsNoSleep.NoSleepNode[0].Processor  residualAbs  ETV
3	0	0	0
3	0	0	0
3	5	0	1
3	390	5000	2
3	458	6000	0
3	458	6000	0
3	460	6000	1
3	863	11000	2
3	931	12000	0
3	931	12000	0
3	933	12000	1
3	1286	17000	2
3	1354	18000	0
3	1354	18000	0
3	1356	18000	1
3	1759	23000	2
3	1825	24000	0
3	1825	24000	0
3	1826	24000	1
3	2080	29000	2
3	2131	30000	0
3	2131	30000	0
3	2136	30000	1
3	2410	35000	2
3	2459	36000	0
3	2459	36000	0
3	2460	36000	1
3	2739	41000	2
3	2788	42000	0
3	2788	42000	0
3	2789	42000	1
3	3043	47000	2
3	3092	48000	0
3	3092	48000	0
3	3093	48000	1
3	3372	53000	2
3	3421	54000	0
3	3421	54000	0
3	3422	54000	1
3	3676	59000	2
3	3727	60000	0
3	3727	60000	0
3	3732	60000	1
3	4006	65000	2
3	4055	66000	0
3	4055	66000	0
3	4056	66000	1
3	4335	71000	2
3	4384	72000	0
3	4384	72000	0
3	4385	72000	1
3	4639	77000	2
3	4688	78000	0
3	4688	78000	0
3	4689	78000	1
3	4968	83000	2
3	5017	84000	0
3	5017	84000	0
3	5018	84000	1
3	5272	89000	2
3	5323	90000	0
3	5323	90000	0
3	5328	90000	1
3	5602	95000	2
3	5651	96000	0
3	5651	96000	0
3	5652	96000	1
3	5931	101000	2
3	5980	102000	0
3	5980	102000	0
3	5981	102000	1
3	6235	107000	2
3	6284	108000	0
3	6284	108000	0
3	6285	108000	1
3	6564	113000	2
3	6613	114000	0
3	6613	114000	0
3	6614	114000	1
3	6868	119000	2
4	0	0	3
4	5	0	3
4	5	0	3
4	28	0	3
4	28	0	3
4	29	0	3
4	29	0	3
4	30	0	3
4	30	0	3
4	31	0	3
4	31	0	3
4	388	5000	3
4	388	5000	3
4	388	5000	3
4	390	5000	3
4	390	5000	3
4	458	6000	3
4	458	6000	3
4	460	6000	3
4	460	6000	3
4	740	10000	3
4	740	10000	3
4	742	10000	3
4	742	10000	3
4	742	10000	3
4	779	10000	3
4	779	10000	3
4	780	10000	3
4	780	10000	3
4	781	10000	3
4	781	10000	3
4	782	10000	3
4	782	10000	3
4	863	11000	3
4	863	11000	3
4	931	12000	3
4	931	12000	3
4	933	12000	3
4	933	12000	3
4	1142	15000	3
4	1142	15000	3
4	1142	15000	3
4	1286	17000	3
4	1286	17000	3
4	1354	18000	3
4	1354	18000	3
4	1356	18000	3
4	1356	18000	3
4	1498	20000	3
4	1498	20000	3
4	1500	20000	3
4	1500	20000	3
4	1500	20000	3
4	1537	20000	3
4	1537	20000	3
4	1538	20000	3
4	1538	20000	3
4	1539	20000	3
4	1539	20000	3
4	1540	20000	3
4	1540	20000	3
4	1759	23000	3
4	1759	23000	3
4	1825	24000	3
4	1825	24000	3
4	1826	24000	3
4	1826	24000	3
4	1878	25000	3
4	1878	25000	3
4	1878	25000	3
4	2080	29000	3
4	2080	29000	3
4	2129	30000	3
4	2129	30000	3
4	2130	30000	3
4	2130	30000	3
4	2130	30000	3
4	2131	30000	3
4	2131	30000	3
4	2136	30000	3
4	2136	30000	3
4	2149	30000	3
4	2149	30000	3
4	2150	30000	3
4	2150	30000	3
4	2151	30000	3
4	2151	30000	3
4	2152	30000	3
4	2152	30000	3
4	2409	35000	3
4	2409	35000	3
4	2409	35000	3
4	2410	35000	3
4	2410	35000	3
4	2459	36000	3
4	2459	36000	3
4	2460	36000	3
4	2460	36000	3
4	2662	40000	3
4	2662	40000	3
4	2663	40000	3
4	2663	40000	3
4	2663	40000	3
4	2680	40000	3
4	2680	40000	3
4	2681	40000	3
4	2681	40000	3
4	2682	40000	3
4	2682	40000	3
4	2683	40000	3
4	2683	40000	3
4	2739	41000	3
4	2739	41000	3
4	2788	42000	3
4	2788	42000	3
4	2789	42000	3
4	2789	42000	3
4	2940	45000	3
4	2940	45000	3
4	2940	45000	3
4	3043	47000	3
4	3043	47000	3
4	3092	48000	3
4	3092	48000	3
4	3093	48000	3
4	3093	48000	3
4	3196	50000	3
4	3196	50000	3
4	3197	50000	3
4	3197	50000	3
4	3197	50000	3
4	3214	50000	3
4	3214	50000	3
4	3215	50000	3
4	3215	50000	3
4	3216	50000	3
4	3216	50000	3
4	3217	50000	3
4	3217	50000	3
4	3372	53000	3
4	3372	53000	3
4	3421	54000	3
4	3421	54000	3
4	3422	54000	3
4	3422	54000	3
4	3474	55000	3
4	3474	55000	3
4	3474	55000	3
4	3676	59000	3
4	3676	59000	3
4	3725	60000	3
4	3725	60000	3
4	3726	60000	3
4	3726	60000	3
4	3726	60000	3
4	3727	60000	3
4	3727	60000	3
4	3732	60000	3
4	3732	60000	3
4	3745	60000	3
4	3745	60000	3
4	3746	60000	3
4	3746	60000	3
4	3747	60000	3
4	3747	60000	3
4	3748	60000	3
4	3748	60000	3
4	4005	65000	3
4	4005	65000	3
4	4005	65000	3
4	4006	65000	3
4	4006	65000	3
4	4055	66000	3
4	4055	66000	3
4	4056	66000	3
4	4056	66000	3
4	4258	70000	3
4	4258	70000	3
4	4259	70000	3
4	4259	70000	3
4	4259	70000	3
4	4276	70000	3
4	4276	70000	3
4	4277	70000	3
4	4277	70000	3
4	4278	70000	3
4	4278	70000	3
4	4279	70000	3
4	4279	70000	3
4	4335	71000	3
4	4335	71000	3
4	4384	72000	3
4	4384	72000	3
4	4385	72000	3
4	4385	72000	3
4	4536	75000	3
4	4536	75000	3
4	4536	75000	3
4	4639	77000	3
4	4639	77000	3
4	4688	78000	3
4	4688	78000	3
4	4689	78000	3
4	4689	78000	3
4	4792	80000	3
4	4792	80000	3
4	4793	80000	3
4	4793	80000	3
4	4793	80000	3
4	4810	80000	3
4	4810	80000	3
4	4811	80000	3
4	4811	80000	3
4	4812	80000	3
4	4812	80000	3
4	4813	80000	3
4	4813	80000	3
4	4968	83000	3
4	4968	83000	3
4	5017	84000	3
4	5017	84000	3
4	5018	84000	3
4	5018	84000	3
4	5070	85000	3
4	5070	85000	3
4	5070	85000	3
4	5272	89000	3
4	5272	89000	3
4	5321	90000	3
4	5321	90000	3
4	5322	90000	3
4	5322	90000	3
4	5322	90000	3
4	5323	90000	3
4	5323	90000	3
4	5328	90000	3
4	5328	90000	3
4	5341	90000	3
4	5341	90000	3
4	5342	90000	3
4	5342	90000	3
4	5343	90000	3
4	5343	90000	3
4	5344	90000	3
4	5344	90000	3
4	5601	95000	3
4	5601	95000	3
4	5601	95000	3
4	5602	95000	3
4	5602	95000	3
4	5651	96000	3
4	5651	96000	3
4	5652	96000	3
4	5652	96000	3
4	5854	100000	3
4	5854	100000	3
4	5855	100000	3
4	5855	100000	3
4	5855	100000	3
4	5872	100000	3
4	5872	100000	3
4	5873	100000	3
4	5873	100000	3
4	5874	100000	3
4	5874	100000	3
4	5875	100000	3
4	5875	100000	3
4	5931	101000	3
4	5931	101000	3
4	5980	102000	3
4	5980	102000	3
4	5981	102000	3
4	5981	102000	3
4	6132	105000	3
4	6132	105000	3
4	6132	105000	3
4	6235	107000	3
4	6235	107000	3
4	6284	108000	3
4	6284	108000	3
4	6285	108000	3
4	6285	108000	3
4	6388	110000	3
4	6388	110000	3
4	6389	110000	3
4	6389	110000	3
4	6389	110000	3
4	6406	110000	3
4	6406	110000	3
4	6407	110000	3
4	6407	110000	3
4	6408	110000	3
4	6408	110000	3
4	6409	110000	3
4	6409	110000	3
4	6564	113000	3
4	6564	113000	3
4	6613	114000	3
4	6613	114000	3
4	6614	114000	3
4	6614	114000	3
4	6666	115000	3
4	6666	115000	3
4	6666	115000	3
4	6868	119000	3
4	6868	119000	3
5	0	0	1
5	5	0	0.99988888888889
5	5	0	0.999875
5	28	0	0.99980092592593
5	28	0	0.99978703703704
5	29	0	0.99978703703704
5	29	0	0.99977314814815
5	30	0	0.99977314814815
5	30	0	0.99975925925926
5	31	0	0.99975925925926
5	31	0	0.99974537037037
5	388	5000	0.99127
5	388	5000	0.99127
5	388	5000	0.99122222222222
5	390	5000	0.99122222222222
5	390	5000	0.99119907407407
5	458	6000	0.94925462962963
5	458	6000	0.94923611111111
5	460	6000	0.94923611111111
5	460	6000	0.94922222222222
5	740	10000	0.94251222222222
5	740	10000	0.94243055555556
5	742	10000	0.94243055555556
5	742	10000	0.94243055555556
5	742	10000	0.94241666666667
5	779	10000	0.94219444444444
5	779	10000	0.94218055555556
5	780	10000	0.94218055555556
5	780	10000	0.94216666666667
5	781	10000	0.94216666666667
5	781	10000	0.94215277777778
5	782	10000	0.94215277777778
5	782	10000	0.94213888888889
5	863	11000	0.94040740740741
5	863	11000	0.94038425925926
5	931	12000	0.89843981481481
5	931	12000	0.8984212962963
5	933	12000	0.8984212962963
5	933	12000	0.89840740740741
5	1142	15000	0.89342574074074
5	1142	15000	0.89342574074074
5	1142	15000	0.89331018518519
5	1286	17000	0.8899212962963
5	1286	17000	0.88989814814815
5	1354	18000	0.8479537037037
5	1354	18000	0.84793518518519
5	1356	18000	0.84793518518519
5	1356	18000	0.8479212962963
5	1498	20000	0.8445662962963
5	1498	20000	0.84451851851852
5	1500	20000	0.84451851851852
5	1500	20000	0.84451851851852
5	1500	20000	0.84450462962963
5	1537	20000	0.84428240740741
5	1537	20000	0.84426851851852
5	1538	20000	0.84426851851852
5	1538	20000	0.84425462962963
5	1539	20000	0.84425462962963
5	1539	20000	0.84424074074074
5	1540	20000	0.84424074074074
5	1540	20000	0.84422685185185
5	1759	23000	0.83910648148148
5	1759	23000	0.83908333333333
5	1825	24000	0.79713888888889
5	1825	24000	0.79712037037037
5	1826	24000	0.79712037037037
5	1826	24000	0.79710648148148
5	1878	25000	0.79547981481481
5	1878	25000	0.79547981481481
5	1878	25000	0.79539814814815
5	2080	29000	0.78862037037037
5	2080	29000	0.78859722222222
5	2129	30000	0.74916944444444
5	2129	30000	0.74662962962963
5	2130	30000	0.74662962962963
5	2130	30000	0.74662962962963
5	2130	30000	0.74660648148148
5	2131	30000	0.74660648148148
5	2131	30000	0.74658796296296
5	2136	30000	0.74647685185185
5	2136	30000	0.74646296296296
5	2149	30000	0.74635185185185
5	2149	30000	0.74633796296296
5	2150	30000	0.74633796296296
5	2150	30000	0.74632407407407
5	2151	30000	0.74632407407407
5	2151	30000	0.74631018518519
5	2152	30000	0.74631018518519
5	2152	30000	0.7462962962963
5	2409	35000	0.73782092592593
5	2409	35000	0.73782092592593
5	2409	35000	0.73777314814815
5	2410	35000	0.73777314814815
5	2410	35000	0.73775
5	2459	36000	0.69580555555556
5	2459	36000	0.69578703703704
5	2460	36000	0.69578703703704
5	2460	36000	0.69577314814815
5	2662	40000	0.68906314814815
5	2662	40000	0.68898148148148
5	2663	40000	0.68898148148148
5	2663	40000	0.68898148148148
5	2663	40000	0.68896759259259
5	2680	40000	0.68874537037037
5	2680	40000	0.68873148148148
5	2681	40000	0.68873148148148
5	2681	40000	0.68871759259259
5	2682	40000	0.68871759259259
5	2682	40000	0.6887037037037
5	2683	40000	0.6887037037037
5	2683	40000	0.68868981481481
5	2739	41000	0.68695833333333
5	2739	41000	0.68693518518519
5	2788	42000	0.64499074074074
5	2788	42000	0.64497222222222
5	2789	42000	0.64497222222222
5	2789	42000	0.64495833333333
5	2940	45000	0.63997666666667
5	2940	45000	0.63997666666667
5	2940	45000	0.63986111111111
5	3043	47000	0.63647222222222
5	3043	47000	0.63644907407407
5	3092	48000	0.59450462962963
5	3092	48000	0.59448611111111
5	3093	48000	0.59448611111111
5	3093	48000	0.59447222222222
5	3196	50000	0.59111722222222
5	3196	50000	0.59106944444444
5	3197	50000	0.59106944444444
5	3197	50000	0.59106944444444
5	3197	50000	0.59105555555556
5	3214	50000	0.59083333333333
5	3214	50000	0.59081944444444
5	3215	50000	0.59081944444444
5	3215	50000	0.59080555555556
5	3216	50000	0.59080555555556
5	3216	50000	0.59079166666667
5	3217	50000	0.59079166666667
5	3217	50000	0.59077777777778
5	3372	53000	0.58565740740741
5	3372	53000	0.58563425925926
5	3421	54000	0.54368981481481
5	3421	54000	0.5436712962963
5	3422	54000	0.5436712962963
5	3422	54000	0.54365740740741
5	3474	55000	0.54203074074074
5	3474	55000	0.54203074074074
5	3474	55000	0.54194907407407
5	3676	59000	0.5351712962963
5	3676	59000	0.53514814814815
5	3725	60000	0.49572037037037
5	3725	60000	0.49318055555556
5	3726	60000	0.49318055555556
5	3726	60000	0.49318055555556
5	3726	60000	0.49315740740741
5	3727	60000	0.49315740740741
5	3727	60000	0.49313888888889
5	3732	60000	0.49302777777778
5	3732	60000	0.49301388888889
5	3745	60000	0.49290277777778
5	3745	60000	0.49288888888889
5	3746	60000	0.49288888888889
5	3746	60000	0.492875
5	3747	60000	0.492875
5	3747	60000	0.49286111111111
5	3748	60000	0.49286111111111
5	3748	60000	0.49284722222222
5	4005	65000	0.48437185185185
5	4005	65000	0.48437185185185
5	4005	65000	0.48432407407407
5	4006	65000	0.48432407407407
5	4006	65000	0.48430092592593
5	4055	66000	0.44235648148148
5	4055	66000	0.44233796296296
5	4056	66000	0.44233796296296
5	4056	66000	0.44232407407407
5	4258	70000	0.43561407407407
5	4258	70000	0.43553240740741
5	4259	70000	0.43553240740741
5	4259	70000	0.43553240740741
5	4259	70000	0.43551851851852
5	4276	70000	0.4352962962963
5	4276	70000	0.43528240740741
5	4277	70000	0.43528240740741
5	4277	70000	0.43526851851852
5	4278	70000	0.43526851851852
5	4278	70000	0.43525462962963
5	4279	70000	0.43525462962963
5	4279	70000	0.43524074074074
5	4335	71000	0.43350925925926
5	4335	71000	0.43348611111111
5	4384	72000	0.39154166666667
5	4384	72000	0.39152314814815
5	4385	72000	0.39152314814815
5	4385	72000	0.39150925925926
5	4536	75000	0.38652759259259
5	4536	75000	0.38652759259259
5	4536	75000	0.38641203703704
5	4639	77000	0.38302314814815
5	4639	77000	0.383
5	4688	78000	0.34105555555556
5	4688	78000	0.34103703703704
5	4689	78000	0.34103703703704
5	4689	78000	0.34102314814815
5	4792	80000	0.33766814814815
5	4792	80000	0.33762037037037
5	4793	80000	0.33762037037037
5	4793	80000	0.33762037037037
5	4793	80000	0.33760648148148
5	4810	80000	0.33738425925926
5	4810	80000	0.33737037037037
5	4811	80000	0.33737037037037
5	4811	80000	0.33735648148148
5	4812	80000	0.33735648148148
5	4812	80000	0.33734259259259
5	4813	80000	0.33734259259259
5	4813	80000	0.3373287037037
5	4968	83000	0.33220833333333
5	4968	83000	0.33218518518519
5	5017	84000	0.29024074074074
5	5017	84000	0.29022222222222
5	5018	84000	0.29022222222222
5	5018	84000	0.29020833333333
5	5070	85000	0.28858166666667
5	5070	85000	0.28858166666667
5	5070	85000	0.2885
5	5272	89000	0.28172222222222
5	5272	89000	0.28169907407407
5	5321	90000	0.2422712962963
5	5321	90000	0.23973148148148
5	5322	90000	0.23973148148148
5	5322	90000	0.23973148148148
5	5322	90000	0.23970833333333
5	5323	90000	0.23970833333333
5	5323	90000	0.23968981481481
5	5328	90000	0.2395787037037
5	5328	90000	0.23956481481481
5	5341	90000	0.2394537037037
5	5341	90000	0.23943981481481
5	5342	90000	0.23943981481481
5	5342	90000	0.23942592592593
5	5343	90000	0.23942592592593
5	5343	90000	0.23941203703704
5	5344	90000	0.23941203703704
5	5344	90000	0.23939814814815
5	5601	95000	0.23092277777778
5	5601	95000	0.23092277777778
5	5601	95000	0.230875
5	5602	95000	0.230875
5	5602	95000	0.23085185185185
5	5651	96000	0.18890740740741
5	5651	96000	0.18888888888889
5	5652	96000	0.18888888888889
5	5652	96000	0.188875
5	5854	100000	0.182165
5	5854	100000	0.18208333333333
5	5855	100000	0.18208333333333
5	5855	100000	0.18208333333333
5	5855	100000	0.18206944444444
5	5872	100000	0.18184722222222
5	5872	100000	0.18183333333333
5	5873	100000	0.18183333333333
5	5873	100000	0.18181944444444
5	5874	100000	0.18181944444444
5	5874	100000	0.18180555555556
5	5875	100000	0.18180555555556
5	5875	100000	0.18179166666667
5	5931	101000	0.18006018518519
5	5931	101000	0.18003703703704
5	5980	102000	0.13809259259259
5	5980	102000	0.13807407407407
5	5981	102000	0.13807407407407
5	5981	102000	0.13806018518519
5	6132	105000	0.13307851851852
5	6132	105000	0.13307851851852
5	6132	105000	0.13296296296296
5	6235	107000	0.12957407407407
5	6235	107000	0.12955092592593
5	6284	108000	0.087606481481481
5	6284	108000	0.087587962962963
5	6285	108000	0.087587962962963
5	6285	108000	0.087574074074074
5	6388	110000	0.084219074074074
5	6388	110000	0.084171296296296
5	6389	110000	0.084171296296296
5	6389	110000	0.084171296296296
5	6389	110000	0.084157407407407
5	6406	110000	0.083935185185185
5	6406	110000	0.083921296296296
5	6407	110000	0.083921296296296
5	6407	110000	0.083907407407407
5	6408	110000	0.083907407407407
5	6408	110000	0.083893518518519
5	6409	110000	0.083893518518519
5	6409	110000	0.08387962962963
5	6564	113000	0.078759259259259
5	6564	113000	0.078736111111111
5	6613	114000	0.036791666666667
5	6613	114000	0.036773148148148
5	6614	114000	0.036773148148148
5	6614	114000	0.036759259259259
5	6666	115000	0.035132592592593
5	6666	115000	0.035132592592593
5	6666	115000	0.035050925925926
5	6868	119000	0.028273148148148
5	6868	119000	0.02825
6	0	0	10800000
6	5	0	10798800
6	5	0	10798650
6	28	0	10797850
6	28	0	10797700
6	29	0	10797700
6	29	0	10797550
6	30	0	10797550
6	30	0	10797400
6	31	0	10797400
6	31	0	10797250
6	388	5000	10705716
6	388	5000	10705716
6	388	5000	10705200
6	390	5000	10705200
6	390	5000	10704950
6	458	6000	10251950
6	458	6000	10251750
6	460	6000	10251750
6	460	6000	10251600
6	740	10000	10179132
6	740	10000	10178250
6	742	10000	10178250
6	742	10000	10178250
6	742	10000	10178100
6	779	10000	10175700
6	779	10000	10175550
6	780	10000	10175550
6	780	10000	10175400
6	781	10000	10175400
6	781	10000	10175250
6	782	10000	10175250
6	782	10000	10175100
6	863	11000	10156400
6	863	11000	10156150
6	931	12000	9703150
6	931	12000	9702950
6	933	12000	9702950
6	933	12000	9702800
6	1142	15000	9648998
6	1142	15000	9648998
6	1142	15000	9647750
6	1286	17000	9611150
6	1286	17000	9610900
6	1354	18000	9157900
6	1354	18000	9157700
6	1356	18000	9157700
6	1356	18000	9157550
6	1498	20000	9121316
6	1498	20000	9120800
6	1500	20000	9120800
6	1500	20000	9120800
6	1500	20000	9120650
6	1537	20000	9118250
6	1537	20000	9118100
6	1538	20000	9118100
6	1538	20000	9117950
6	1539	20000	9117950
6	1539	20000	9117800
6	1540	20000	9117800
6	1540	20000	9117650
6	1759	23000	9062350
6	1759	23000	9062100
6	1825	24000	8609100
6	1825	24000	8608900
6	1826	24000	8608900
6	1826	24000	8608750
6	1878	25000	8591182
6	1878	25000	8591182
6	1878	25000	8590300
6	2080	29000	8517100
6	2080	29000	8516850
6	2129	30000	8091030
6	2129	30000	8063600
6	2130	30000	8063600
6	2130	30000	8063600
6	2130	30000	8063350
6	2131	30000	8063350
6	2131	30000	8063150
6	2136	30000	8061950
6	2136	30000	8061800
6	2149	30000	8060600
6	2149	30000	8060450
6	2150	30000	8060450
6	2150	30000	8060300
6	2151	30000	8060300
6	2151	30000	8060150
6	2152	30000	8060150
6	2152	30000	8060000
6	2409	35000	7968466
6	2409	35000	7968466
6	2409	35000	7967950
6	2410	35000	7967950
6	2410	35000	7967700
6	2459	36000	7514700
6	2459	36000	7514500
6	2460	36000	7514500
6	2460	36000	7514350
6	2662	40000	7441882
6	2662	40000	7441000
6	2663	40000	7441000
6	2663	40000	7441000
6	2663	40000	7440850
6	2680	40000	7438450
6	2680	40000	7438300
6	2681	40000	7438300
6	2681	40000	7438150
6	2682	40000	7438150
6	2682	40000	7438000
6	2683	40000	7438000
6	2683	40000	7437850
6	2739	41000	7419150
6	2739	41000	7418900
6	2788	42000	6965900
6	2788	42000	6965700
6	2789	42000	6965700
6	2789	42000	6965550
6	2940	45000	6911748
6	2940	45000	6911748
6	2940	45000	6910500
6	3043	47000	6873900
6	3043	47000	6873650
6	3092	48000	6420650
6	3092	48000	6420450
6	3093	48000	6420450
6	3093	48000	6420300
6	3196	50000	6384066
6	3196	50000	6383550
6	3197	50000	6383550
6	3197	50000	6383550
6	3197	50000	6383400
6	3214	50000	6381000
6	3214	50000	6380850
6	3215	50000	6380850
6	3215	50000	6380700
6	3216	50000	6380700
6	3216	50000	6380550
6	3217	50000	6380550
6	3217	50000	6380400
6	3372	53000	6325100
6	3372	53000	6324850
6	3421	54000	5871850
6	3421	54000	5871650
6	3422	54000	5871650
6	3422	54000	5871500
6	3474	55000	5853932
6	3474	55000	5853932
6	3474	55000	5853050
6	3676	59000	5779850
6	3676	59000	5779600
6	3725	60000	5353780
6	3725	60000	5326350
6	3726	60000	5326350
6	3726	60000	5326350
6	3726	60000	5326100
6	3727	60000	5326100
6	3727	60000	5325900
6	3732	60000	5324700
6	3732	60000	5324550
6	3745	60000	5323350
6	3745	60000	5323200
6	3746	60000	5323200
6	3746	60000	5323050
6	3747	60000	5323050
6	3747	60000	5322900
6	3748	60000	5322900
6	3748	60000	5322750
6	4005	65000	5231216
6	4005	65000	5231216
6	4005	65000	5230700
6	4006	65000	5230700
6	4006	65000	5230450
6	4055	66000	4777450
6	4055	66000	4777250
6	4056	66000	4777250
6	4056	66000	4777100
6	4258	70000	4704632
6	4258	70000	4703750
6	4259	70000	4703750
6	4259	70000	4703750
6	4259	70000	4703600
6	4276	70000	4701200
6	4276	70000	4701050
6	4277	70000	4701050
6	4277	70000	4700900
6	4278	70000	4700900
6	4278	70000	4700750
6	4279	70000	4700750
6	4279	70000	4700600
6	4335	71000	4681900
6	4335	71000	4681650
6	4384	72000	4228650
6	4384	72000	4228450
6	4385	72000	4228450
6	4385	72000	4228300
6	4536	75000	4174498
6	4536	75000	4174498
6	4536	75000	4173250
6	4639	77000	4136650
6	4639	77000	4136400
6	4688	78000	3683400
6	4688	78000	3683200
6	4689	78000	3683200
6	4689	78000	3683050
6	4792	80000	3646816
6	4792	80000	3646300
6	4793	80000	3646300
6	4793	80000	3646300
6	4793	80000	3646150
6	4810	80000	3643750
6	4810	80000	3643600
6	4811	80000	3643600
6	4811	80000	3643450
6	4812	80000	3643450
6	4812	80000	3643300
6	4813	80000	3643300
6	4813	80000	3643150
6	4968	83000	3587850
6	4968	83000	3587600
6	5017	84000	3134600
6	5017	84000	3134400
6	5018	84000	3134400
6	5018	84000	3134250
6	5070	85000	3116682
6	5070	85000	3116682
6	5070	85000	3115800
6	5272	89000	3042600
6	5272	89000	3042350
6	5321	90000	2616530
6	5321	90000	2589100
6	5322	90000	2589100
6	5322	90000	2589100
6	5322	90000	2588850
6	5323	90000	2588850
6	5323	90000	2588650
6	5328	90000	2587450
6	5328	90000	2587300
6	5341	90000	2586100
6	5341	90000	2585950
6	5342	90000	2585950
6	5342	90000	2585800
6	5343	90000	2585800
6	5343	90000	2585650
6	5344	90000	2585650
6	5344	90000	2585500
6	5601	95000	2493966
6	5601	95000	2493966
6	5601	95000	2493450
6	5602	95000	2493450
6	5602	95000	2493200
6	5651	96000	2040200
6	5651	96000	2040000
6	5652	96000	2040000
6	5652	96000	2039850
6	5854	100000	1967382
6	5854	100000	1966500
6	5855	100000	1966500
6	5855	100000	1966500
6	5855	100000	1966350
6	5872	100000	1963950
6	5872	100000	1963800
6	5873	100000	1963800
6	5873	100000	1963650
6	5874	100000	1963650
6	5874	100000	1963500
6	5875	100000	1963500
6	5875	100000	1963350
6	5931	101000	1944650
6	5931	101000	1944400
6	5980	102000	1491400
6	5980	102000	1491200
6	5981	102000	1491200
6	5981	102000	1491050
6	6132	105000	1437248
6	6132	105000	1437248
6	6132	105000	1436000
6	6235	107000	1399400
6	6235	107000	1399150
6	6284	108000	946150
6	6284	108000	945950
6	6285	108000	945950
6	6285	108000	945800
6	6388	110000	909566
6	6388	110000	909050
6	6389	110000	909050
6	6389	110000	909050
6	6389	110000	908900
6	6406	110000	906500
6	6406	110000	906350
6	6407	110000	906350
6	6407	110000	906200
6	6408	110000	906200
6	6408	110000	906050
6	6409	110000	906050
6	6409	110000	905900
6	6564	113000	850600
6	6564	113000	850350
6	6613	114000	397350
6	6613	114000	397150
6	6614	114000	397150
6	6614	114000	397000
6	6666	115000	379432
6	6666	115000	379432
6	6666	115000	378550
6	6868	119000	305350
6	6868	119000	305100
10	0	0	0
10	0	0	0
10	10	0	1
10	19	0	2
10	108	1000	0
10	108	1000	0
10	109	1000	1
10	110	1000	2
10	179	2000	0
10	179	2000	0
10	180	2000	1
10	181	2000	2
10	246	3000	0
10	246	3000	0
10	247	3000	1
10	248	3000	2
10	317	4000	0
10	317	4000	0
10	318	4000	1
10	319	4000	2
10	391	5000	0
10	391	5000	0
10	392	5000	1
10	393	5000	2
10	459	6000	0
10	459	6000	0
10	461	6000	1
10	462	6000	2
10	531	7000	0
10	531	7000	0
10	532	7000	1
10	533	7000	2
10	602	8000	0
10	602	8000	0
10	603	8000	1
10	604	8000	2
10	669	9000	0
10	669	9000	0
10	670	9000	1
10	671	9000	2
10	744	10000	0
10	744	10000	0
10	753	10000	1
10	762	10000	2
10	864	11000	0
10	864	11000	0
10	865	11000	1
10	866	11000	2
10	932	12000	0
10	932	12000	0
10	934	12000	1
10	935	12000	2
10	1004	13000	0
10	1004	13000	0
10	1005	13000	1
10	1006	13000	2
10	1075	14000	0
10	1075	14000	0
10	1076	14000	1
10	1077	14000	2
10	1144	15000	0
10	1144	15000	0
10	1145	15000	1
10	1146	15000	2
10	1215	16000	0
10	1215	16000	0
10	1216	16000	1
10	1217	16000	2
10	1287	17000	0
10	1287	17000	0
10	1288	17000	1
10	1289	17000	2
10	1355	18000	0
10	1355	18000	0
10	1357	18000	1
10	1358	18000	2
10	1427	19000	0
10	1427	19000	0
10	1428	19000	1
10	1429	19000	2
10	1502	20000	0
10	1502	20000	0
10	1511	20000	1
10	1520	20000	2
10	1617	21000	0
10	1617	21000	0
10	1618	21000	1
10	1619	21000	2
10	1688	22000	0
10	1688	22000	0
10	1689	22000	1
10	1690	22000	2
10	1760	23000	0
10	1760	23000	0
10	1761	23000	1
10	1762	23000	2
11	0	0	3
11	10	0	3
11	10	0	3
11	19	0	3
11	19	0	3
11	32	0	3
11	32	0	3
11	33	0	3
11	33	0	3
11	34	0	3
11	34	0	3
11	35	0	3
11	35	0	3
11	108	1000	3
11	108	1000	3
11	109	1000	3
11	109	1000	3
11	110	1000	3
11	110	1000	3
11	179	2000	3
11	179	2000	3
11	180	2000	3
11	180	2000	3
11	181	2000	3
11	181	2000	3
11	246	3000	3
11	246	3000	3
11	247	3000	3
11	247	3000	3
11	248	3000	3
11	248	3000	3
11	317	4000	3
11	317	4000	3
11	318	4000	3
11	318	4000	3
11	319	4000	3
11	319	4000	3
11	389	5000	3
11	389	5000	3
11	389	5000	3
11	391	5000	3
11	391	5000	3
11	392	5000	3
11	392	5000	3
11	393	5000	3
11	393	5000	3
11	459	6000	3
11	459	6000	3
11	461	6000	3
11	461	6000	3
11	462	6000	3
11	462	6000	3
11	531	7000	3
11	531	7000	3
11	532	7000	3
11	532	7000	3
11	533	7000	3
11	533	7000	3
11	602	8000	3
11	602	8000	3
11	603	8000	3
11	603	8000	3
11	604	8000	3
11	604	8000	3
11	669	9000	3
11	669	9000	3
11	670	9000	3
11	670	9000	3
11	671	9000	3
11	671	9000	3
11	741	10000	3
11	741	10000	3
11	743	10000	3
11	743	10000	3
11	743	10000	3
11	744	10000	3
11	744	10000	3
11	753	10000	3
11	753	10000	3
11	762	10000	3
11	762	10000	3
11	783	10000	3
11	783	10000	3
11	784	10000	3
11	784	10000	3
11	785	10000	3
11	785	10000	3
11	786	10000	3
11	786	10000	3
11	864	11000	3
11	864	11000	3
11	865	11000	3
11	865	11000	3
11	866	11000	3
11	866	11000	3
11	932	12000	3
11	932	12000	3
11	934	12000	3
11	934	12000	3
11	935	12000	3
11	935	12000	3
11	1004	13000	3
11	1004	13000	3
11	1005	13000	3
11	1005	13000	3
11	1006	13000	3
11	1006	13000	3
11	1075	14000	3
11	1075	14000	3
11	1076	14000	3
11	1076	14000	3
11	1077	14000	3
11	1077	14000	3
11	1143	15000	3
11	1143	15000	3
11	1143	15000	3
11	1144	15000	3
11	1144	15000	3
11	1145	15000	3
11	1145	15000	3
11	1146	15000	3
11	1146	15000	3
11	1215	16000	3
11	1215	16000	3
11	1216	16000	3
11	1216	16000	3
11	1217	16000	3
11	1217	16000	3
11	1287	17000	3
11	1287	17000	3
11	1288	17000	3
11	1288	17000	3
11	1289	17000	3
11	1289	17000	3
11	1355	18000	3
11	1355	18000	3
11	1357	18000	3
11	1357	18000	3
11	1358	18000	3
11	1358	18000	3
11	1427	19000	3
11	1427	19000	3
11	1428	19000	3
11	1428	19000	3
11	1429	19000	3
11	1429	19000	3
11	1499	20000	3
11	1499	20000	3
11	1501	20000	3
11	1501	20000	3
11	1501	20000	3
11	1502	20000	3
11	1502	20000	3
11	1511	20000	3
11	1511	20000	3
11	1520	20000	3
11	1520	20000	3
11	1541	20000	3
11	1541	20000	3
11	1542	20000	3
11	1542	20000	3
11	1543	20000	3
11	1543	20000	3
11	1544	20000	3
11	1544	20000	3
11	1617	21000	3
11	1617	21000	3
11	1618	21000	3
11	1618	21000	3
11	1619	21000	3
11	1619	21000	3
11	1688	22000	3
11	1688	22000	3
11	1689	22000	3
11	1689	22000	3
11	1690	22000	3
11	1690	22000	3
11	1760	23000	3
11	1760	23000	3
11	1761	23000	3
11	1761	23000	3
11	1762	23000	3
11	1762	23000	3
12	0	0	1
12	10	0	0.99988888888889
12	10	0	0.999875
12	19	0	0.99983796296296
12	19	0	0.99981481481481
12	32	0	0.99977777777778
12	32	0	0.99975462962963
12	33	0	0.99975462962963
12	33	0	0.99973148148148
12	34	0	0.99973148148148
12	34	0	0.99970833333333
12	35	0	0.99970833333333
12	35	0	0.99968518518519
12	108	1000	0.9577037037037
12	108	1000	0.95768518518519
12	109	1000	0.95768518518519
12	109	1000	0.9576712962963
12	110	1000	0.9576712962963
12	110	1000	0.95764814814815
12	179	2000	0.9157037037037
12	179	2000	0.91568518518519
12	180	2000	0.91568518518519
12	180	2000	0.9156712962963
12	181	2000	0.9156712962963
12	181	2000	0.91564814814815
12	246	3000	0.8737037037037
12	246	3000	0.87368518518519
12	247	3000	0.87368518518519
12	247	3000	0.8736712962963
12	248	3000	0.8736712962963
12	248	3000	0.87364814814815
12	317	4000	0.8317037037037
12	317	4000	0.83168518518519
12	318	4000	0.83168518518519
12	318	4000	0.8316712962963
12	319	4000	0.8316712962963
12	319	4000	0.83164814814815
12	389	5000	0.79054259259259
12	389	5000	0.79054259259259
12	389	5000	0.78968055555556
12	391	5000	0.78968055555556
12	391	5000	0.78966203703704
12	392	5000	0.78966203703704
12	392	5000	0.78964814814815
12	393	5000	0.78964814814815
12	393	5000	0.789625
12	459	6000	0.74768055555556
12	459	6000	0.74766203703704
12	461	6000	0.74766203703704
12	461	6000	0.74764814814815
12	462	6000	0.74764814814815
12	462	6000	0.747625
12	531	7000	0.70568055555556
12	531	7000	0.70566203703704
12	532	7000	0.70566203703704
12	532	7000	0.70564814814815
12	533	7000	0.70564814814815
12	533	7000	0.705625
12	602	8000	0.66368055555556
12	602	8000	0.66366203703704
12	603	8000	0.66366203703704
12	603	8000	0.66364814814815
12	604	8000	0.66364814814815
12	604	8000	0.663625
12	669	9000	0.62168055555556
12	669	9000	0.62166203703704
12	670	9000	0.62166203703704
12	670	9000	0.62164814814815
12	671	9000	0.62164814814815
12	671	9000	0.621625
12	741	10000	0.58135833333333
12	741	10000	0.57965740740741
12	743	10000	0.57965740740741
12	743	10000	0.57965740740741
12	743	10000	0.57963425925926
12	744	10000	0.57963425925926
12	744	10000	0.57961574074074
12	753	10000	0.57950462962963
12	753	10000	0.57949074074074
12	762	10000	0.5794537037037
12	762	10000	0.57943055555556
12	783	10000	0.57935648148148
12	783	10000	0.57933333333333
12	784	10000	0.57933333333333
12	784	10000	0.57931018518519
12	785	10000	0.57931018518519
12	785	10000	0.57928703703704
12	786	10000	0.57928703703704
12	786	10000	0.57926388888889
12	864	11000	0.53728240740741
12	864	11000	0.53726388888889
12	865	11000	0.53726388888889
12	865	11000	0.53725
12	866	11000	0.53725
12	866	11000	0.53722685185185
12	932	12000	0.49528240740741
12	932	12000	0.49526388888889
12	934	12000	0.49526388888889
12	934	12000	0.49525
12	935	12000	0.49525
12	935	12000	0.49522685185185
12	1004	13000	0.45328240740741
12	1004	13000	0.45326388888889
12	1005	13000	0.45326388888889
12	1005	13000	0.45325
12	1006	13000	0.45325
12	1006	13000	0.45322685185185
12	1075	14000	0.41128240740741
12	1075	14000	0.41126388888889
12	1076	14000	0.41126388888889
12	1076	14000	0.41125
12	1077	14000	0.41125
12	1077	14000	0.41122685185185
12	1143	15000	0.37179907407407
12	1143	15000	0.37179907407407
12	1143	15000	0.36925925925926
12	1144	15000	0.36925925925926
12	1144	15000	0.36924074074074
12	1145	15000	0.36924074074074
12	1145	15000	0.36922685185185
12	1146	15000	0.36922685185185
12	1146	15000	0.3692037037037
12	1215	16000	0.32725925925926
12	1215	16000	0.32724074074074
12	1216	16000	0.32724074074074
12	1216	16000	0.32722685185185
12	1217	16000	0.32722685185185
12	1217	16000	0.3272037037037
12	1287	17000	0.28525925925926
12	1287	17000	0.28524074074074
12	1288	17000	0.28524074074074
12	1288	17000	0.28522685185185
12	1289	17000	0.28522685185185
12	1289	17000	0.2852037037037
12	1355	18000	0.24325925925926
12	1355	18000	0.24324074074074