version 2
run General-0-20150522-10:52:50-6162
attr configname General
attr datetime 20150522-10:52:50
attr experiment General
attr inifile omnetpp.ini
attr iterationvars ""
attr iterationvars2 $repetition=0
attr measurement ""
attr network SleepVsNoSleep
attr processid 6162
attr repetition 0
attr replication #0
attr resultdir results
attr runnumber 0
attr seedset 0

vector 3  SleepVsNoSleep.SleepNode.Processor  "power mode"  ETV
vector 4  SleepVsNoSleep.SleepNode.Processor  "Sensor Modules Status"  ETV
vector 5  SleepVsNoSleep.SleepNode.Processor  Voltage  ETV
vector 6  SleepVsNoSleep.SleepNode.Processor  residualRelative  ETV
vector 7  SleepVsNoSleep.SleepNode.Processor  residualAbs  ETV
vector 11  SleepVsNoSleep.NoSleepNode.Processor  "power mode"  ETV
vector 12  SleepVsNoSleep.NoSleepNode.Processor  "Sensor Modules Status"  ETV
vector 13  SleepVsNoSleep.NoSleepNode.Processor  Voltage  ETV
vector 14  SleepVsNoSleep.NoSleepNode.Processor  residualRelative  ETV
vector 15  SleepVsNoSleep.NoSleepNode.Processor  residualAbs  ETV
vector 17  SleepVsNoSleep.SleepNode.TemperatureSensor.SensingUnit  "Energy Consumptions"  ETV
vector 18  SleepVsNoSleep.SleepNode.TemperatureSensor.SensingUnit  "Current use over time"  ETV
vector 19  SleepVsNoSleep.SleepNode.TemperatureSensor.SignalConditioner  "Energy Consumptions"  ETV
vector 20  SleepVsNoSleep.SleepNode.TemperatureSensor.SignalConditioner  "Current use over time"  ETV
vector 21  SleepVsNoSleep.SleepNode.TemperatureSensor.SignalConverter  "Energy Consumptions"  ETV
vector 22  SleepVsNoSleep.SleepNode.TemperatureSensor.SignalConverter  "Current use over time"  ETV
vector 23  SleepVsNoSleep.SleepNode.TemperatureSensor.Transducer  "Energy Consumptions"  ETV
vector 24  SleepVsNoSleep.SleepNode.TemperatureSensor.Transducer  "Current use over time"  ETV
vector 25  SleepVsNoSleep.SleepNode.HumiditySensor.SensingUnit  "Energy Consumptions"  ETV
vector 26  SleepVsNoSleep.SleepNode.HumiditySensor.SensingUnit  "Current use over time"  ETV
vector 27  SleepVsNoSleep.SleepNode.HumiditySensor.SignalConditioner  "Energy Consumptions"  ETV
vector 28  SleepVsNoSleep.SleepNode.HumiditySensor.SignalConditioner  "Current use over time"  ETV
vector 29  SleepVsNoSleep.SleepNode.HumiditySensor.SignalConverter  "Energy Consumptions"  ETV
vector 30  SleepVsNoSleep.SleepNode.HumiditySensor.SignalConverter  "Current use over time"  ETV
vector 31  SleepVsNoSleep.SleepNode.HumiditySensor.Transducer  "Energy Consumptions"  ETV
vector 32  SleepVsNoSleep.SleepNode.HumiditySensor.Transducer  "Current use over time"  ETV
vector 33  SleepVsNoSleep.SleepNode.PressureSensor.SensingUnit  "Energy Consumptions"  ETV
vector 34  SleepVsNoSleep.SleepNode.PressureSensor.SensingUnit  "Current use over time"  ETV
vector 35  SleepVsNoSleep.SleepNode.PressureSensor.SignalConditioner  "Energy Consumptions"  ETV
vector 36  SleepVsNoSleep.SleepNode.PressureSensor.SignalConditioner  "Current use over time"  ETV
vector 37  SleepVsNoSleep.SleepNode.PressureSensor.SignalConverter  "Energy Consumptions"  ETV
vector 38  SleepVsNoSleep.SleepNode.PressureSensor.SignalConverter  "Current use over time"  ETV
vector 39  SleepVsNoSleep.SleepNode.PressureSensor.Transducer  "Energy Consumptions"  ETV
vector 40  SleepVsNoSleep.SleepNode.PressureSensor.Transducer  "Current use over time"  ETV
vector 41  SleepVsNoSleep.SleepNode.LightSensor.SensingUnit  "Energy Consumptions"  ETV
vector 42  SleepVsNoSleep.SleepNode.LightSensor.SensingUnit  "Current use over time"  ETV
vector 43  SleepVsNoSleep.SleepNode.LightSensor.SignalConditioner  "Energy Consumptions"  ETV
vector 44  SleepVsNoSleep.SleepNode.LightSensor.SignalConditioner  "Current use over time"  ETV
vector 45  SleepVsNoSleep.SleepNode.LightSensor.SignalConverter  "Energy Consumptions"  ETV
vector 46  SleepVsNoSleep.SleepNode.LightSensor.SignalConverter  "Current use over time"  ETV
vector 47  SleepVsNoSleep.SleepNode.LightSensor.Transducer  "Energy Consumptions"  ETV
vector 48  SleepVsNoSleep.SleepNode.LightSensor.Transducer  "Current use over time"  ETV
vector 49  SleepVsNoSleep.SleepNode.Memory  "Energy Consumptions"  ETV
vector 50  SleepVsNoSleep.SleepNode.Memory  "Current use over time"  ETV
vector 52  SleepVsNoSleep.NoSleepNode.TemperatureSensor.SensingUnit  "Energy Consumptions"  ETV
vector 53  SleepVsNoSleep.NoSleepNode.TemperatureSensor.SensingUnit  "Current use over time"  ETV
vector 54  SleepVsNoSleep.NoSleepNode.TemperatureSensor.SignalConditioner  "Energy Consumptions"  ETV
vector 55  SleepVsNoSleep.NoSleepNode.TemperatureSensor.SignalConditioner  "Current use over time"  ETV
vector 56  SleepVsNoSleep.NoSleepNode.TemperatureSensor.SignalConverter  "Energy Consumptions"  ETV
vector 57  SleepVsNoSleep.NoSleepNode.TemperatureSensor.SignalConverter  "Current use over time"  ETV
vector 58  SleepVsNoSleep.NoSleepNode.TemperatureSensor.Transducer  "Energy Consumptions"  ETV
vector 59  SleepVsNoSleep.NoSleepNode.TemperatureSensor.Transducer  "Current use over time"  ETV
vector 60  SleepVsNoSleep.NoSleepNode.HumiditySensor.SensingUnit  "Energy Consumptions"  ETV
vector 61  SleepVsNoSleep.NoSleepNode.HumiditySensor.SensingUnit  "Current use over time"  ETV
vector 62  SleepVsNoSleep.NoSleepNode.HumiditySensor.SignalConditioner  "Energy Consumptions"  ETV
vector 63  SleepVsNoSleep.NoSleepNode.HumiditySensor.SignalConditioner  "Current use over time"  ETV
vector 64  SleepVsNoSleep.NoSleepNode.HumiditySensor.SignalConverter  "Energy Consumptions"  ETV
vector 65  SleepVsNoSleep.NoSleepNode.HumiditySensor.SignalConverter  "Current use over time"  ETV
vector 66  SleepVsNoSleep.NoSleepNode.HumiditySensor.Transducer  "Energy Consumptions"  ETV
vector 67  SleepVsNoSleep.NoSleepNode.HumiditySensor.Transducer  "Current use over time"  ETV
vector 68  SleepVsNoSleep.NoSleepNode.PressureSensor.SensingUnit  "Energy Consumptions"  ETV
vector 69  SleepVsNoSleep.NoSleepNode.PressureSensor.SensingUnit  "Current use over time"  ETV
vector 70  SleepVsNoSleep.NoSleepNode.PressureSensor.SignalConditioner  "Energy Consumptions"  ETV
vector 71  SleepVsNoSleep.NoSleepNode.PressureSensor.SignalConditioner  "Current use over time"  ETV
vector 72  SleepVsNoSleep.NoSleepNode.PressureSensor.SignalConverter  "Energy Consumptions"  ETV
vector 73  SleepVsNoSleep.NoSleepNode.PressureSensor.SignalConverter  "Current use over time"  ETV
vector 74  SleepVsNoSleep.NoSleepNode.PressureSensor.Transducer  "Energy Consumptions"  ETV
vector 75  SleepVsNoSleep.NoSleepNode.PressureSensor.Transducer  "Current use over time"  ETV
vector 76  SleepVsNoSleep.NoSleepNode.LightSensor.SensingUnit  "Energy Consumptions"  ETV
vector 77  SleepVsNoSleep.NoSleepNode.LightSensor.SensingUnit  "Current use over time"  ETV
vector 78  SleepVsNoSleep.NoSleepNode.LightSensor.SignalConditioner  "Energy Consumptions"  ETV
vector 79  SleepVsNoSleep.NoSleepNode.LightSensor.SignalConditioner  "Current use over time"  ETV
vector 80  SleepVsNoSleep.NoSleepNode.LightSensor.SignalConverter  "Energy Consumptions"  ETV
vector 81  SleepVsNoSleep.NoSleepNode.LightSensor.SignalConverter  "Current use over time"  ETV
vector 82  SleepVsNoSleep.NoSleepNode.LightSensor.Transducer  "Energy Consumptions"  ETV
vector 83  SleepVsNoSleep.NoSleepNode.LightSensor.Transducer  "Current use over time"  ETV
vector 84  SleepVsNoSleep.NoSleepNode.Memory  "Energy Consumptions"  ETV
vector 85  SleepVsNoSleep.NoSleepNode.Memory  "Current use over time"  ETV
3	0	0	0
3	0	0	0
3	6	0	1
3	391	5000	2
3	459	6000	0
3	459	6000	0
3	461	6000	1
3	864	11000	2
3	932	12000	0
3	932	12000	0
3	934	12000	1
3	1287	17000	2
3	1355	18000	0
3	1355	18000	0
3	1357	18000	1
3	1760	23000	2
3	1826	24000	0
3	1826	24000	0
3	1827	24000	1
3	2081	29000	2
3	2132	30000	0
3	2132	30000	0
3	2137	30000	1
3	2411	35000	2
3	2460	36000	0
3	2460	36000	0
3	2461	36000	1
3	2740	41000	2
3	2789	42000	0
3	2789	42000	0
3	2790	42000	1
3	3044	47000	2
3	3093	48000	0
3	3093	48000	0
3	3094	48000	1
3	3373	53000	2
3	3422	54000	0
3	3422	54000	0
3	3423	54000	1
3	3677	59000	2
3	3728	60000	0
3	3728	60000	0
3	3733	60000	1
3	4007	65000	2
3	4056	66000	0
3	4056	66000	0
3	4057	66000	1
4	0	0	0
4	29	0	0
4	30	0	0
4	31	0	0
4	32	0	0
4	741	10000	1
4	780	10000	0
4	781	10000	0
4	782	10000	0
4	783	10000	0
4	1499	20000	1
4	1538	20000	0
4	1539	20000	0
4	1540	20000	0
4	1541	20000	0
4	2130	30000	1
4	2150	30000	0
4	2151	30000	0
4	2152	30000	0
4	2153	30000	0
4	2663	40000	1
4	2681	40000	0
4	2682	40000	0
4	2683	40000	0
4	2684	40000	0
4	3197	50000	1
4	3215	50000	0
4	3216	50000	0
4	3217	50000	0
4	3218	50000	0
4	3726	60000	1
4	3746	60000	0
4	3747	60000	0
4	3748	60000	0
4	3749	60000	0
5	0	0	3
5	6	0	3
5	6	0	3
5	29	0	3
5	29	0	3
5	30	0	3
5	30	0	3
5	31	0	3
5	31	0	3
5	32	0	3
5	32	0	3
5	389	5000	3
5	389	5000	3
5	389	5000	3
5	391	5000	3
5	391	5000	3
5	459	6000	3
5	459	6000	3
5	461	6000	3
5	461	6000	3
5	741	10000	3
5	741	10000	3
5	743	10000	3
5	743	10000	3
5	743	10000	3
5	780	10000	3
5	780	10000	3
5	781	10000	3
5	781	10000	3
5	782	10000	3
5	782	10000	3
5	783	10000	3
5	783	10000	3
5	864	11000	3
5	864	11000	3
5	932	12000	3
5	932	12000	3
5	934	12000	3
5	934	12000	3
5	1143	15000	3
5	1143	15000	3
5	1143	15000	3
5	1287	17000	3
5	1287	17000	3
5	1355	18000	3
5	1355	18000	3
5	1357	18000	3
5	1357	18000	3
5	1499	20000	3
5	1499	20000	3
5	1501	20000	3
5	1501	20000	3
5	1501	20000	3
5	1538	20000	3
5	1538	20000	3
5	1539	20000	3
5	1539	20000	3
5	1540	20000	3
5	1540	20000	3
5	1541	20000	3
5	1541	20000	3
5	1760	23000	3
5	1760	23000	3
5	1826	24000	3
5	1826	24000	3
5	1827	24000	3
5	1827	24000	3
5	1879	25000	3
5	1879	25000	3
5	1879	25000	3
5	2081	29000	3
5	2081	29000	3
5	2130	30000	3
5	2130	30000	3
5	2131	30000	3
5	2131	30000	3
5	2131	30000	3
5	2132	30000	3
5	2132	30000	3
5	2137	30000	3
5	2137	30000	3
5	2150	30000	3
5	2150	30000	3
5	2151	30000	3
5	2151	30000	3
5	2152	30000	3
5	2152	30000	3
5	2153	30000	3
5	2153	30000	3
5	2410	35000	3
5	2410	35000	3
5	2410	35000	3
5	2411	35000	3
5	2411	35000	3
5	2460	36000	3
5	2460	36000	3
5	2461	36000	3
5	2461	36000	3
5	2663	40000	3
5	2663	40000	3
5	2664	40000	3
5	2664	40000	3
5	2664	40000	3
5	2681	40000	3
5	2681	40000	3
5	2682	40000	3
5	2682	40000	3
5	2683	40000	3
5	2683	40000	3
5	2684	40000	3
5	2684	40000	3
5	2740	41000	3
5	2740	41000	3
5	2789	42000	3
5	2789	42000	3
5	2790	42000	3
5	2790	42000	3
5	2941	45000	3
5	2941	45000	3
5	2941	45000	3
5	3044	47000	3
5	3044	47000	3
5	3093	48000	3
5	3093	48000	3
5	3094	48000	3
5	3094	48000	3
5	3197	50000	3
5	3197	50000	3
5	3198	50000	3
5	3198	50000	3
5	3198	50000	3
5	3215	50000	3
5	3215	50000	3
5	3216	50000	3
5	3216	50000	3
5	3217	50000	3
5	3217	50000	3
5	3218	50000	3
5	3218	50000	3
5	3373	53000	3
5	3373	53000	3
5	3422	54000	3
5	3422	54000	3
5	3423	54000	3
5	3423	54000	3
5	3475	55000	3
5	3475	55000	3
5	3475	55000	3
5	3677	59000	3
5	3677	59000	3
5	3726	60000	3
5	3726	60000	3
5	3727	60000	3
5	3727	60000	3
5	3727	60000	3
5	3728	60000	3
5	3728	60000	3
5	3733	60000	3
5	3733	60000	3
5	3746	60000	3
5	3746	60000	3
5	3747	60000	3
5	3747	60000	3
5	3748	60000	3
5	3748	60000	3
5	3749	60000	3
5	3749	60000	3
5	4006	65000	3
5	4006	65000	3
5	4006	65000	3
5	4007	65000	3
5	4007	65000	3
5	4056	66000	3
5	4056	66000	3
5	4057	66000	3
5	4057	66000	3
6	0	0	1
6	6	0	0.99988888888889
6	6	0	0.999875
6	29	0	0.99980092592593
6	29	0	0.99978703703704
6	30	0	0.99978703703704
6	30	0	0.99977314814815
6	31	0	0.99977314814815
6	31	0	0.99975925925926
6	32	0	0.99975925925926
6	32	0	0.99974537037037
6	389	5000	0.99127
6	389	5000	0.99127
6	389	5000	0.99122222222222
6	391	5000	0.99122222222222
6	391	5000	0.99119907407407
6	459	6000	0.94925462962963
6	459	6000	0.94923611111111
6	461	6000	0.94923611111111
6	461	6000	0.94922222222222
6	741	10000	0.94251222222222
6	741	10000	0.94243055555556
6	743	10000	0.94243055555556
6	743	10000	0.94243055555556
6	743	10000	0.94241666666667
6	780	10000	0.94219444444444
6	780	10000	0.94218055555556
6	781	10000	0.94218055555556
6	781	10000	0.94216666666667
6	782	10000	0.94216666666667
6	782	10000	0.94215277777778
6	783	10000	0.94215277777778
6	783	10000	0.94213888888889
6	864	11000	0.94040740740741
6	864	11000	0.94038425925926
6	932	12000	0.89843981481481
6	932	12000	0.8984212962963
6	934	12000	0.8984212962963
6	934	12000	0.89840740740741
6	1143	15000	0.89342574074074
6	1143	15000	0.89342574074074
6	1143	15000	0.89331018518519
6	1287	17000	0.8899212962963
6	1287	17000	0.88989814814815
6	1355	18000	0.8479537037037
6	1355	18000	0.84793518518519
6	1357	18000	0.84793518518519
6	1357	18000	0.8479212962963
6	1499	20000	0.8445662962963
6	1499	20000	0.84451851851852
6	1501	20000	0.84451851851852
6	1501	20000	0.84451851851852
6	1501	20000	0.84450462962963
6	1538	20000	0.84428240740741
6	1538	20000	0.84426851851852
6	1539	20000	0.84426851851852
6	1539	20000	0.84425462962963
6	1540	20000	0.84425462962963
6	1540	20000	0.84424074074074
6	1541	20000	0.84424074074074
6	1541	20000	0.84422685185185
6	1760	23000	0.83910648148148
6	1760	23000	0.83908333333333
6	1826	24000	0.79713888888889
6	1826	24000	0.79712037037037
6	1827	24000	0.79712037037037
6	1827	24000	0.79710648148148
6	1879	25000	0.79547981481481
6	1879	25000	0.79547981481481
6	1879	25000	0.79539814814815
6	2081	29000	0.78862037037037
6	2081	29000	0.78859722222222
6	2130	30000	0.74916944444444
6	2130	30000	0.74662962962963
6	2131	30000	0.74662962962963
6	2131	30000	0.74662962962963
6	2131	30000	0.74660648148148
6	2132	30000	0.74660648148148
6	2132	30000	0.74658796296296
6	2137	30000	0.74647685185185
6	2137	30000	0.74646296296296
6	2150	30000	0.74635185185185
6	2150	30000	0.74633796296296
6	2151	30000	0.74633796296296
6	2151	30000	0.74632407407407
6	2152	30000	0.74632407407407
6	2152	30000	0.74631018518519
6	2153	30000	0.74631018518519
6	2153	30000	0.7462962962963
6	2410	35000	0.73782092592593
6	2410	35000	0.73782092592593
6	2410	35000	0.73777314814815
6	2411	35000	0.73777314814815
6	2411	35000	0.73775
6	2460	36000	0.69580555555556
6	2460	36000	0.69578703703704
6	2461	36000	0.69578703703704
6	2461	36000	0.69577314814815
6	2663	40000	0.68906314814815
6	2663	40000	0.68898148148148
6	2664	40000	0.68898148148148
6	2664	40000	0.68898148148148
6	2664	40000	0.68896759259259
6	2681	40000	0.68874537037037
6	2681	40000	0.68873148148148
6	2682	40000	0.68873148148148
6	2682	40000	0.68871759259259
6	2683	40000	0.68871759259259
6	2683	40000	0.6887037037037
6	2684	40000	0.6887037037037
6	2684	40000	0.68868981481481
6	2740	41000	0.68695833333333
6	2740	41000	0.68693518518519
6	2789	42000	0.64499074074074
6	2789	42000	0.64497222222222
6	2790	42000	0.64497222222222
6	2790	42000	0.64495833333333
6	2941	45000	0.63997666666667
6	2941	45000	0.63997666666667
6	2941	45000	0.63986111111111
6	3044	47000	0.63647222222222
6	3044	47000	0.63644907407407
6	3093	48000	0.59450462962963
6	3093	48000	0.59448611111111
6	3094	48000	0.59448611111111
6	3094	48000	0.59447222222222
6	3197	50000	0.59111722222222
6	3197	50000	0.59106944444444
6	3198	50000	0.59106944444444
6	3198	50000	0.59106944444444
6	3198	50000	0.59105555555556
6	3215	50000	0.59083333333333
6	3215	50000	0.59081944444444
6	3216	50000	0.59081944444444
6	3216	50000	0.59080555555556
6	3217	50000	0.59080555555556
6	3217	50000	0.59079166666667
6	3218	50000	0.59079166666667
6	3218	50000	0.59077777777778
6	3373	53000	0.58565740740741
6	3373	53000	0.58563425925926
6	3422	54000	0.54368981481481
6	3422	54000	0.5436712962963
6	3423	54000	0.5436712962963
6	3423	54000	0.54365740740741
6	3475	55000	0.54203074074074
6	3475	55000	0.54203074074074
6	3475	55000	0.54194907407407
6	3677	59000	0.5351712962963
6	3677	59000	0.53514814814815
6	3726	60000	0.49572037037037
6	3726	60000	0.49318055555556
6	3727	60000	0.49318055555556
6	3727	60000	0.49318055555556
6	3727	60000	0.49315740740741
6	3728	60000	0.49315740740741
6	3728	60000	0.49313888888889
6	3733	60000	0.49302777777778
6	3733	60000	0.49301388888889
6	3746	60000	0.49290277777778
6	3746	60000	0.49288888888889
6	3747	60000	0.49288888888889
6	3747	60000	0.492875
6	3748	60000	0.492875
6	3748	60000	0.49286111111111
6	3749	60000	0.49286111111111
6	3749	60000	0.49284722222222
6	4006	65000	0.48437185185185
6	4006	65000	0.48437185185185
6	4006	65000	0.48432407407407
6	4007	65000	0.48432407407407
6	4007	65000	0.48430092592593
6	4056	66000	0.44235648148148
6	4056	66000	0.44233796296296
6	4057	66000	0.44233796296296
6	4057	66000	0.44232407407407
7	0	0	10800000
7	6	0	10798800
7	6	0	10798650
7	29	0	10797850
7	29	0	10797700
7	30	0	10797700
7	30	0	10797550
7	31	0	10797550
7	31	0	10797400
7	32	0	10797400
7	32	0	10797250
7	389	5000	10705716
7	389	5000	10705716
7	389	5000	10705200
7	391	5000	10705200
7	391	5000	10704950
7	459	6000	10251950
7	459	6000	10251750
7	461	6000	10251750
7	461	6000	10251600
7	741	10000	10179132
7	741	10000	10178250
7	743	10000	10178250
7	743	10000	10178250
7	743	10000	10178100
7	780	10000	10175700
7	780	10000	10175550
7	781	10000	10175550
7	781	10000	10175400
7	782	10000	10175400
7	782	10000	10175250
7	783	10000	10175250
7	783	10000	10175100
7	864	11000	10156400
7	864	11000	10156150
7	932	12000	9703150
7	932	12000	9702950
7	934	12000	9702950
7	934	12000	9702800
7	1143	15000	9648998
7	1143	15000	9648998
7	1143	15000	9647750
7	1287	17000	9611150
7	1287	17000	9610900
7	1355	18000	9157900
7	1355	18000	9157700
7	1357	18000	9157700
7	1357	18000	9157550
7	1499	20000	9121316
7	1499	20000	9120800
7	1501	20000	9120800
7	1501	20000	9120800
7	1501	20000	9120650
7	1538	20000	9118250
7	1538	20000	9118100
7	1539	20000	9118100
7	1539	20000	9117950
7	1540	20000	9117950
7	1540	20000	9117800
7	1541	20000	9117800
7	1541	20000	9117650
7	1760	23000	9062350
7	1760	23000	9062100
7	1826	24000	8609100
7	1826	24000	8608900
7	1827	24000	8608900
7	1827	24000	8608750
7	1879	25000	8591182
7	1879	25000	8591182
7	1879	25000	8590300
7	2081	29000	8517100
7	2081	29000	8516850
7	2130	30000	8091030
7	2130	30000	8063600
7	2131	30000	8063600
7	2131	30000	8063600
7	2131	30000	8063350
7	2132	30000	8063350
7	2132	30000	8063150
7	2137	30000	8061950
7	2137	30000	8061800
7	2150	30000	8060600
7	2150	30000	8060450
7	2151	30000	8060450
7	2151	30000	8060300
7	2152	30000	8060300
7	2152	30000	8060150
7	2153	30000	8060150
7	2153	30000	8060000
7	2410	35000	7968466
7	2410	35000	7968466
7	2410	35000	7967950
7	2411	35000	7967950
7	2411	35000	7967700
7	2460	36000	7514700
7	2460	36000	7514500
7	2461	36000	7514500
7	2461	36000	7514350
7	2663	40000	7441882
7	2663	40000	7441000
7	2664	40000	7441000
7	2664	40000	7441000
7	2664	40000	7440850
7	2681	40000	7438450
7	2681	40000	7438300
7	2682	40000	7438300
7	2682	40000	7438150
7	2683	40000	7438150
7	2683	40000	7438000
7	2684	40000	7438000
7	2684	40000	7437850
7	2740	41000	7419150
7	2740	41000	7418900
7	2789	42000	6965900
7	2789	42000	6965700
7	2790	42000	6965700
7	2790	42000	6965550
7	2941	45000	6911748
7	2941	45000	6911748
7	2941	45000	6910500
7	3044	47000	6873900
7	3044	47000	6873650
7	3093	48000	6420650
7	3093	48000	6420450
7	3094	48000	6420450
7	3094	48000	6420300
7	3197	50000	6384066
7	3197	50000	6383550
7	3198	50000	6383550
7	3198	50000	6383550
7	3198	50000	6383400
7	3215	50000	6381000
7	3215	50000	6380850
7	3216	50000	6380850
7	3216	50000	6380700
7	3217	50000	6380700
7	3217	50000	6380550
7	3218	50000	6380550
7	3218	50000	6380400
7	3373	53000	6325100
7	3373	53000	6324850
7	3422	54000	5871850
7	3422	54000	5871650
7	3423	54000	5871650
7	3423	54000	5871500
7	3475	55000	5853932
7	3475	55000	5853932
7	3475	55000	5853050
7	3677	59000	5779850
7	3677	59000	5779600
7	3726	60000	5353780
7	3726	60000	5326350
7	3727	60000	5326350
7	3727	60000	5326350
7	3727	60000	5326100
7	3728	60000	5326100
7	3728	60000	5325900
7	3733	60000	5324700
7	3733	60000	5324550
7	3746	60000	5323350
7	3746	60000	5323200
7	3747	60000	5323200
7	3747	60000	5323050
7	3748	60000	5323050
7	3748	60000	5322900
7	3749	60000	5322900
7	3749	60000	5322750
7	4006	65000	5231216
7	4006	65000	5231216
7	4006	65000	5230700
7	4007	65000	5230700
7	4007	65000	5230450
7	4056	66000	4777450
7	4056	66000	4777250
7	4057	66000	4777250
7	4057	66000	4777100
11	0	0	0
11	0	0	0
11	11	0	1
11	20	0	2
11	109	1000	0
11	109	1000	0
11	110	1000	1
11	111	1000	2
11	180	2000	0
11	180	2000	0
11	181	2000	1
11	182	2000	2
11	247	3000	0
11	247	3000	0
11	248	3000	1
11	249	3000	2
11	318	4000	0
11	318	4000	0
11	319	4000	1
11	320	4000	2
11	392	5000	0
11	392	5000	0
11	393	5000	1
11	394	5000	2
11	460	6000	0
11	460	6000	0
11	462	6000	1
11	463	6000	2
11	532	7000	0
11	532	7000	0
11	533	7000	1
11	534	7000	2
11	603	8000	0
11	603	8000	0
11	604	8000	1
11	605	8000	2
11	670	9000	0
11	670	9000	0
11	671	9000	1
11	672	9000	2
11	745	10000	0
11	745	10000	0
11	754	10000	1
11	763	10000	2
11	865	11000	0
11	865	11000	0
11	866	11000	1
11	867	11000	2
11	933	12000	0
11	933	12000	0
11	935	12000	1
11	936	12000	2
11	1005	13000	0
11	1005	13000	0
11	1006	13000	1
11	1007	13000	2
11	1076	14000	0
11	1076	14000	0
11	1077	14000	1
11	1078	14000	2
11	1145	15000	0
11	1145	15000	0
11	1146	15000	1
11	1147	15000	2
11	1216	16000	0
11	1216	16000	0
11	1217	16000	1
11	1218	16000	2
11	1288	17000	0
11	1288	17000	0
11	1289	17000	1
11	1290	17000	2
11	1356	18000	0
11	1356	18000	0
11	1358	18000	1
11	1359	18000	2
11	1428	19000	0
11	1428	19000	0
11	1429	19000	1
11	1430	19000	2
11	1503	20000	0
11	1503	20000	0
11	1512	20000	1
11	1521	20000	2
11	1618	21000	0
11	1618	21000	0
11	1619	21000	1
11	1620	21000	2
11	1689	22000	0
11	1689	22000	0
11	1690	22000	1
11	1691	22000	2
11	1761	23000	0
11	1761	23000	0
11	1762	23000	1
11	1763	23000	2
12	0	0	0
12	33	0	0
12	34	0	0
12	35	0	0
12	36	0	0
12	742	10000	1
12	784	10000	0
12	785	10000	0
12	786	10000	0
12	787	10000	0
12	1500	20000	1
12	1542	20000	0
12	1543	20000	0
12	1544	20000	0
12	1545	20000	0
13	0	0	3
13	11	0	3
13	11	0	3
13	20	0	3
13	20	0	3
13	33	0	3
13	33	0	3
13	34	0	3
13	34	0	3
13	35	0	3
13	35	0	3
13	36	0	3
13	36	0	3
13	109	1000	3
13	109	1000	3
13	110	1000	3
13	110	1000	3
13	111	1000	3
13	111	1000	3
13	180	2000	3
13	180	2000	3
13	181	2000	3
13	181	2000	3
13	182	2000	3
13	182	2000	3
13	247	3000	3
13	247	3000	3
13	248	3000	3
13	248	3000	3
13	249	3000	3
13	249	3000	3
13	318	4000	3
13	318	4000	3
13	319	4000	3
13	319	4000	3
13	320	4000	3
13	320	4000	3
13	390	5000	3
13	390	5000	3
13	390	5000	3
13	392	5000	3
13	392	5000	3
13	393	5000	3
13	393	5000	3
13	394	5000	3
13	394	5000	3
13	460	6000	3
13	460	6000	3
13	462	6000	3
13	462	6000	3
13	463	6000	3
13	463	6000	3
13	532	7000	3
13	532	7000	3
13	533	7000	3
13	533	7000	3
13	534	7000	3
13	534	7000	3
13	603	8000	3
13	603	8000	3
13	604	8000	3
13	604	8000	3
13	605	8000	3
13	605	8000	3
13	670	9000	3
13	670	9000	3
13	671	9000	3
13	671	9000	3
13	672	9000	3
13	672	9000	3
13	742	10000	3
13	742	10000	3
13	744	10000	3
13	744	10000	3
13	744	10000	3
13	745	10000	3
13	745	10000	3
13	754	10000	3
13	754	10000	3
13	763	10000	3
13	763	10000	3
13	784	10000	3
13	784	10000	3
13	785	10000	3
13	785	10000	3
13	786	10000	3
13	786	10000	3
13	787	10000	3
13	787	10000	3
13	865	11000	3
13	865	11000	3
13	866	11000	3
13	866	11000	3
13	867	11000	3
13	867	11000	3
13	933	12000	3
13	933	12000	3
13	935	12000	3
13	935	12000	3
13	936	12000	3
13	936	12000	3
13	1005	13000	3
13	1005	13000	3
13	1006	13000	3
13	1006	13000	3
13	1007	13000	3
13	1007	13000	3
13	1076	14000	3
13	1076	14000	3
13	1077	14000	3
13	1077	14000	3
13	1078	14000	3
13	1078	14000	3
13	1144	15000	3
13	1144	15000	3
13	1144	15000	3
13	1145	15000	3
13	1145	15000	3
13	1146	15000	3
13	1146	15000	3
13	1147	15000	3
13	1147	15000	3
13	1216	16000	3
13	1216	16000	3
13	1217	16000	3
13	1217	16000	3
13	1218	16000	3
13	1218	16000	3
13	1288	17000	3
13	1288	17000	3
13	1289	17000	3
13	1289	17000	3
13	1290	17000	3
13	1290	17000	3
13	1356	18000	3
13	1356	18000	3
13	1358	18000	3
13	1358	18000	3
13	1359	18000	3
13	1359	18000	3
13	1428	19000	3
13	1428	19000	3
13	1429	19000	3
13	1429	19000	3
13	1430	19000	3
13	1430	19000	3
13	1500	20000	3
13	1500	20000	3
13	1502	20000	3
13	1502	20000	3
13	1502	20000	3
13	1503	20000	3
13	1503	20000	3
13	1512	20000	3
13	1512	20000	3
13	1521	20000	3
13	1521	20000	3
13	1542	20000	3
13	1542	20000	3
13	1543	20000	3
13	1543	20000	3
13	1544	20000	3
13	1544	20000	3
13	1545	20000	3
13	1545	20000	3
13	1618	21000	3
13	1618	21000	3
13	1619	21000	3
13	1619	21000	3
13	1620	21000	3
13	1620	21000	3
13	1689	22000	3
13	1689	22000	3
13	1690	22000	3
13	1690	22000	3
13	1691	22000	3
13	1691	22000	3
13	1761	23000	3
13	1761	23000	3
13	1762	23000	3
13	1762	23000	3
13	1763	23000	3
13	1763	23000	3
14	0	0	1
14	11	0	0.99988888888889
14	11	0	0.999875
14	20	0	0.99983796296296
14	20	0	0.99981481481481
14	33	0	0.99977777777778
14	33	0	0.99975462962963
14	34	0	0.99975462962963
14	34	0	0.99973148148148
14	35	0	0.99973148148148
14	35	0	0.99970833333333
14	36	0	0.99970833333333
14	36	0	0.99968518518519
14	109	1000	0.9577037037037
14	109	1000	0.95768518518519
14	110	1000	0.95768518518519
14	110	1000	0.9576712962963
14	111	1000	0.9576712962963
14	111	1000	0.95764814814815
14	180	2000	0.9157037037037
14	180	2000	0.91568518518519
14	181	2000	0.91568518518519
14	181	2000	0.9156712962963
14	182	2000	0.9156712962963
14	182	2000	0.91564814814815
14	247	3000	0.8737037037037
14	247	3000	0.87368518518519
14	248	3000	0.87368518518519
14	248	3000	0.8736712962963
14	249	3000	0.8736712962963
14	249	3000	0.87364814814815
14	318	4000	0.8317037037037
14	318	4000	0.83168518518519
14	319	4000	0.83168518518519
14	319	4000	0.8316712962963
14	320	4000	0.8316712962963
14	320	4000	0.83164814814815
14	390	5000	0.79054259259259
14	390	5000	0.79054259259259
14	390	5000	0.78968055555556
14	392	5000	0.78968055555556
14	392	5000	0.78966203703704
14	393	5000	0.78966203703704
14	393	5000	0.78964814814815
14	394	5000	0.78964814814815
14	394	5000	0.789625
14	460	6000	0.74768055555556
14	460	6000	0.74766203703704
14	462	6000	0.74766203703704
14	462	6000	0.74764814814815
14	463	6000	0.74764814814815
14	463	6000	0.747625
14	532	7000	0.70568055555556
14	532	7000	0.70566203703704
14	533	7000	0.70566203703704
14	533	7000	0.70564814814815
14	534	7000	0.70564814814815
14	534	7000	0.705625
14	603	8000	0.66368055555556
14	603	8000	0.66366203703704
14	604	8000	0.66366203703704
14	604	8000	0.66364814814815
14	605	8000	0.66364814814815
14	605	8000	0.663625
14	670	9000	0.62168055555556
14	670	9000	0.62166203703704
14	671	9000	0.62166203703704
14	671	9000	0.62164814814815
14	672	9000	0.62164814814815
14	672	9000	0.621625
14	742	10000	0.58135833333333
14	742	10000	0.57965740740741
14	744	10000	0.57965740740741
14	744	10000	0.57965740740741
14	744	10000	0.57963425925926
14	745	10000	0.57963425925926
14	745	10000	0.57961574074074
14	754	10000	0.57950462962963
14	754	10000	0.57949074074074
14	763	10000	0.5794537037037
14	763	10000	0.57943055555556
14	784	10000	0.57935648148148
14	784	10000	0.57933333333333
14	785	10000	0.57933333333333
14	785	10000	0.57931018518519
14	786	10000	0.57931018518519
14	786	10000	0.57928703703704
14	787	10000	0.57928703703704
14	787	10000	0.57926388888889
14	865	11000	0.53728240740741
14	865	11000	0.53726388888889
14	866	11000	0.53726388888889
14	866	11000	0.53725
14	867	11000	0.53725
14	867	11000	0.53722685185185
14	933	12000	0.49528240740741
14	933	12000	0.49526388888889
14	935	12000	0.49526388888889
14	935	12000	0.49525
14	936	12000	0.49525
14	936	12000	0.49522685185185
14	1005	13000	0.45328240740741
14	1005	13000	0.45326388888889
14	1006	13000	0.45326388888889
14	1006	13000	0.45325
14	1007	13000	0.45325
14	1007	13000	0.45322685185185
14	1076	14000	0.41128240740741
14	1076	14000	0.41126388888889
14	1077	14000	0.41126388888889
14	1077	14000	0.41125
14	1078	14000	0.41125
14	1078	14000	0.41122685185185
14	1144	15000	0.37179907407407
14	1144	15000	0.37179907407407
14	1144	15000	0.36925925925926
14	1145	15000	0.36925925925926
14	1145	15000	0.36924074074074
14	1146	15000	0.36924074074074
14	1146	15000	0.36922685185185
14	1147	15000	0.36922685185185
14	1147	15000	0.3692037037037
14	1216	16000	0.32725925925926
14	1216	16000	0.32724074074074
14	1217	16000	0.32724074074074
14	1217	16000	0.32722685185185
14	1218	16000	0.32722685185185
14	1218	16000	0.3272037037037
14	1288	17000	0.28525925925926
14	1288	17000	0.28524074074074
14	1289	17000	0.28524074074074
14	1289	17000	0.28522685185185
14	1290	17000	0.28522685185185
14	1290	17000	0.2852037037037
14	1356	18000	0.24325925925926
14	1356	18000	0.24324074074074
14	1358	18000	0.24324074074074
14	1358	18000	0.24322685185185
14	1359	18000	0.24322685185185
14	1359	18000	0.2432037037037
14	1428	19000	0.20125925925926
14	1428	19000	0.20124074074074
14	1429	19000	0.20124074074074
14	1429	19000	0.20122685185185
14	1430	19000	0.20122685185185
14	1430	19000	0.2012037037037
14	1500	20000	0.16009814814815
14	1500	20000	0.15923611111111
14	1502	20000	0.15923611111111
14	1502	20000	0.15923611111111
14	1502	20000	0.15921296296296
14	1503	20000	0.15921296296296
14	1503	20000	0.15919444444444
14	1512	20000	0.15908333333333
14	1512	20000	0.15906944444444
14	1521	20000	0.15903240740741
14	1521	20000	0.15900925925926
14	1542	20000	0.15893518518519
14	1542	20000	0.15891203703704
14	1543	20000	0.15891203703704
14	1543	20000	0.15888888888889
14	1544	20000	0.15888888888889
14	1544	20000	0.15886574074074
14	1545	20000	0.15886574074074
14	1545	20000	0.15884259259259
14	1618	21000	0.11686111111111
14	1618	21000	0.11684259259259
14	1619	21000	0.11684259259259
14	1619	21000	0.1168287037037
14	1620	21000	0.1168287037037
14	1620	21000	0.11680555555556
14	1689	22000	0.074861111111111
14	1689	22000	0.074842592592593
14	1690	22000	0.074842592592593
14	1690	22000	0.074828703703704
14	1691	22000	0.074828703703704
14	1691	22000	0.074805555555556
14	1761	23000	0.032861111111111
14	1761	23000	0.032842592592593
14	1762	23000	0.032842592592593
14	1762	23000	0.032828703703704
14	1763	23000	0.032828703703704
14	1763	23000	0.032805555555556
15	0	0	10800000
15	11	0	10798800
15	11	0	10798650
15	20	0	10798250
15	20	0	10798000
15	33	0	10797600
15	33	0	10797350
15	34	0	10797350
15	34	0	10797100
15	35	0	10797100
15	35	0	10796850
15	36	0	10796850
15	36	0	10796600
15	109	1000	10343200
15	109	1000	10343000
15	110	1000	10343000
15	110	1000	10342850
15	111	1000	10342850
15	111	1000	10342600
15	180	2000	9889600
15	180	2000	9889400
15	181	2000	9889400
15	181	2000	9889250
15	182	2000	9889250
15	182	2000	9889000
15	247	3000	9436000
15	247	3000	9435800