version 2
run General-0-20150511-12:42:36-10849
attr configname General
attr datetime 20150511-12:42:36
attr experiment General
attr inifile omnetpp.ini
attr iterationvars ""
attr iterationvars2 $repetition=0
attr measurement ""
attr network SleepVsNoSleep
attr processid 10849
attr repetition 0
attr replication #0
attr resultdir results
attr runnumber 0
attr seedset 0

vector 3  SleepVsNoSleep.SleepNode[0].Processor  Voltage  ETV
vector 4  SleepVsNoSleep.SleepNode[0].Processor  residualRelative  ETV
vector 5  SleepVsNoSleep.SleepNode[0].Processor  residualAbs  ETV
vector 9  SleepVsNoSleep.NoSleepNode[0].Processor  Voltage  ETV
vector 10  SleepVsNoSleep.NoSleepNode[0].Processor  residualRelative  ETV
vector 11  SleepVsNoSleep.NoSleepNode[0].Processor  residualAbs  ETV
3	0	0	3
3	25	0	3
3	25	0	3
3	26	0	3
3	26	0	3
3	27	0	3
3	27	0	3
3	28	0	3
3	28	0	3
3	205	2500	3
3	205	2500	3
3	377	5000	3
3	377	5000	3
3	377	5000	3
3	717	10000	3
3	717	10000	3
3	719	10000	3
3	719	10000	3
3	719	10000	3
3	753	10000	3
3	753	10000	3
3	754	10000	3
3	754	10000	3
3	755	10000	3
3	755	10000	3
3	756	10000	3
3	756	10000	3
3	940	12500	3
3	940	12500	3
3	973	13000	3
3	973	13000	3
3	1108	15000	3
3	1108	15000	3
3	1108	15000	3
3	1147	15500	3
3	1147	15500	3
3	1451	20000	3
3	1451	20000	3
3	1453	20000	3
3	1453	20000	3
3	1453	20000	3
3	1487	20000	3
3	1487	20000	3
3	1488	20000	3
3	1488	20000	3
3	1489	20000	3
3	1489	20000	3
3	1490	20000	3
3	1490	20000	3
3	1841	25000	3
3	1841	25000	3
3	1841	25000	3
3	1875	25500	3
3	1875	25500	3
3	1912	26000	3
3	1912	26000	3
3	2080	28500	3
3	2080	28500	3
3	2183	30000	3
3	2183	30000	3
3	2185	30000	3
3	2185	30000	3
3	2185	30000	3
3	2220	30000	3
3	2220	30000	3
3	2221	30000	3
3	2221	30000	3
3	2222	30000	3
3	2222	30000	3
3	2223	30000	3
3	2223	30000	3
3	2575	35000	3
3	2575	35000	3
3	2575	35000	3
3	2812	38500	3
3	2812	38500	3
3	2847	39000	3
3	2847	39000	3
3	2917	40000	3
3	2917	40000	3
3	2919	40000	3
3	2919	40000	3
3	2919	40000	3
3	2953	40000	3
3	2953	40000	3
3	2954	40000	3
3	2954	40000	3
3	2955	40000	3
3	2955	40000	3
3	2956	40000	3
3	2956	40000	3
3	3069	41500	3
3	3069	41500	3
3	3268	45000	3
3	3268	45000	3
3	3268	45000	3
3	3521	50000	3
3	3521	50000	3
3	3522	50000	3
3	3522	50000	3
3	3522	50000	3
3	3539	50000	3
3	3539	50000	3
3	3540	50000	3
3	3540	50000	3
3	3541	50000	3
3	3541	50000	3
3	3542	50000	3
3	3542	50000	3
3	3622	51500	3
3	3622	51500	3
3	3647	52000	3
3	3647	52000	3
3	3774	54500	3
3	3774	54500	3
3	3799	55000	3
3	3799	55000	3
3	3799	55000	3
3	4049	60000	3
3	4049	60000	3
3	4050	60000	3
3	4050	60000	3
3	4050	60000	3
3	4067	60000	3
3	4067	60000	3
3	4068	60000	3
3	4068	60000	3
3	4069	60000	3
3	4069	60000	3
3	4070	60000	3
3	4070	60000	3
3	4300	64500	3
3	4300	64500	3
3	4328	65000	3
3	4328	65000	3
3	4328	65000	3
3	4329	65000	3
3	4329	65000	3
3	4453	67500	3
3	4453	67500	3
3	4580	70000	3
3	4580	70000	3
3	4581	70000	3
3	4581	70000	3
3	4581	70000	3
3	4598	70000	3
3	4598	70000	3
3	4599	70000	3
3	4599	70000	3
3	4600	70000	3
3	4600	70000	3
3	4601	70000	3
3	4601	70000	3
3	4855	75000	3
3	4855	75000	3
3	4855	75000	3
3	4982	77500	3
3	4982	77500	3
3	5007	78000	3
3	5007	78000	3
3	5110	80000	3
3	5110	80000	3
3	5111	80000	3
3	5111	80000	3
3	5111	80000	3
3	5128	80000	3
3	5128	80000	3
3	5129	80000	3
3	5129	80000	3
3	5130	80000	3
3	5130	80000	3
3	5131	80000	3
3	5131	80000	3
3	5160	80500	3
3	5160	80500	3
3	5386	85000	3
3	5386	85000	3
3	5386	85000	3
3	5636	90000	3
3	5636	90000	3
3	5637	90000	3
3	5637	90000	3
3	5637	90000	3
3	5654	90000	3
3	5654	90000	3
3	5655	90000	3
3	5655	90000	3
3	5656	90000	3
3	5656	90000	3
3	5657	90000	3
3	5657	90000	3
3	5689	90500	3
3	5689	90500	3
3	5714	91000	3
3	5714	91000	3
3	5841	93500	3
3	5841	93500	3
3	5917	95000	3
3	5917	95000	3
3	5917	95000	3
3	6167	100000	3
3	6167	100000	3
3	6168	100000	3
3	6168	100000	3
3	6168	100000	3
3	6185	100000	3
3	6185	100000	3
3	6186	100000	3
3	6186	100000	3
3	6187	100000	3
3	6187	100000	3
3	6188	100000	3
3	6188	100000	3
3	6367	103500	3
3	6367	103500	3
3	6395	104000	3
3	6395	104000	3
3	6444	105000	3
3	6444	105000	3
3	6444	105000	3
3	6520	106500	3
3	6520	106500	3
3	6698	110000	3
3	6698	110000	3
3	6699	110000	3
3	6699	110000	3
3	6699	110000	3
3	6716	110000	3
3	6716	110000	3
3	6717	110000	3
3	6717	110000	3
3	6718	110000	3
3	6718	110000	3
3	6719	110000	3
3	6719	110000	3
3	6973	115000	3
3	6973	115000	3
3	6973	115000	3
3	7049	116500	3
3	7049	116500	3
3	7074	117000	3
3	7074	117000	3
3	7201	119500	3
3	7201	119500	3
3	7226	120000	3
3	7226	120000	3
3	7227	120000	3
3	7227	120000	3
3	7227	120000	3
3	7244	120000	3
3	7244	120000	3
3	7245	120000	3
3	7245	120000	3
3	7246	120000	3
3	7246	120000	3
3	7247	120000	3
3	7247	120000	3
3	7504	125000	3
3	7504	125000	3
3	7504	125000	3
3	7730	129500	3
3	7730	129500	3
3	7755	130000	3
3	7755	130000	3
3	7756	130000	3
3	7756	130000	3
3	7756	130000	3
3	7757	130000	3
3	7757	130000	3
3	7774	130000	3
3	7774	130000	3
3	7775	130000	3
3	7775	130000	3
3	7776	130000	3
3	7776	130000	3
3	7777	130000	3
3	7777	130000	3
3	7908	132500	3
3	7908	132500	3
3	8032	135000	3
3	8032	135000	3
3	8032	135000	3
3	8285	140000	3
3	8285	140000	3
3	8286	140000	3
3	8286	140000	3
3	8286	140000	3
3	8303	140000	3
3	8303	140000	3
3	8304	140000	3
3	8304	140000	3
3	8305	140000	3
3	8305	140000	3
3	8306	140000	3
3	8306	140000	3
3	8434	142500	3
3	8434	142500	3
3	8462	143000	3
3	8462	143000	3
4	0	0	1
4	25	0	0.99981481481481
4	25	0	0.9997962962963
4	26	0	0.9997962962963
4	26	0	0.99977777777778
4	27	0	0.99977777777778
4	27	0	0.99975925925926
4	28	0	0.99975925925926
4	28	0	0.99974074074074
4	205	2500	0.95039814814815
4	205	2500	0.95038425925926
4	377	5000	0.94618203703704
4	377	5000	0.94618203703704
4	377	5000	0.94613425925926
4	717	10000	0.93772981481481
4	717	10000	0.93764814814815
4	719	10000	0.93764814814815
4	719	10000	0.93764814814815
4	719	10000	0.93763425925926
4	753	10000	0.93741203703704
4	753	10000	0.93739814814815
4	754	10000	0.93739814814815
4	754	10000	0.93738425925926
4	755	10000	0.93738425925926
4	755	10000	0.93737037037037
4	756	10000	0.93737037037037
4	756	10000	0.93735648148148
4	940	12500	0.93308333333333
4	940	12500	0.93306018518519
4	973	13000	0.91208796296296
4	973	13000	0.91206944444444
4	1108	15000	0.87380833333333
4	1108	15000	0.87380833333333
4	1108	15000	0.87260648148148
4	1147	15500	0.86274537037037
4	1147	15500	0.86273148148148
4	1451	20000	0.85514037037037
4	1451	20000	0.85509259259259
4	1453	20000	0.85509259259259
4	1453	20000	0.85509259259259
4	1453	20000	0.8550787037037
4	1487	20000	0.85485648148148
4	1487	20000	0.85484259259259
4	1488	20000	0.85484259259259
4	1488	20000	0.8548287037037
4	1489	20000	0.8548287037037
4	1489	20000	0.85481481481481
4	1490	20000	0.85481481481481
4	1490	20000	0.85480092592593
4	1841	25000	0.84635944444444
4	1841	25000	0.84635944444444
4	1841	25000	0.84627777777778
4	1875	25500	0.84543055555556
4	1875	25500	0.84540740740741
4	1912	26000	0.82443518518519
4	1912	26000	0.82441666666667
4	2080	28500	0.77511111111111
4	2080	28500	0.77509722222222
4	2183	30000	0.77265722222222
4	2183	30000	0.77254166666667
4	2185	30000	0.77254166666667
4	2185	30000	0.77254166666667
4	2185	30000	0.77252777777778
4	2220	30000	0.77230555555556
4	2220	30000	0.77229166666667
4	2221	30000	0.77229166666667
4	2221	30000	0.77227777777778
4	2222	30000	0.77227777777778
4	2222	30000	0.77226388888889
4	2223	30000	0.77226388888889
4	2223	30000	0.77225
4	2575	35000	0.76377462962963
4	2575	35000	0.76377462962963
4	2575	35000	0.76372685185185
4	2812	38500	0.7577962962963
4	2812	38500	0.75777314814815
4	2847	39000	0.73680092592593
4	2847	39000	0.73678240740741
4	2917	40000	0.71784907407407
4	2917	40000	0.71704166666667
4	2919	40000	0.71704166666667
4	2919	40000	0.71704166666667
4	2919	40000	0.71702314814815
4	2953	40000	0.71680092592593
4	2953	40000	0.71678240740741
4	2954	40000	0.71678240740741
4	2954	40000	0.71676388888889
4	2955	40000	0.71676388888889
4	2955	40000	0.71674537037037
4	2956	40000	0.71674537037037
4	2956	40000	0.71672685185185
4	3069	41500	0.68710648148148
4	3069	41500	0.68709259259259
4	3268	45000	0.6812637037037
4	3268	45000	0.6812637037037
4	3268	45000	0.68114814814815
4	3521	50000	0.67270981481481
4	3521	50000	0.67266203703704
4	3522	50000	0.67266203703704
4	3522	50000	0.67266203703704
4	3522	50000	0.67264814814815
4	3539	50000	0.67242592592593
4	3539	50000	0.67241203703704
4	3540	50000	0.67241203703704
4	3540	50000	0.67239814814815
4	3541	50000	0.67239814814815
4	3541	50000	0.67238425925926
4	3542	50000	0.67238425925926
4	3542	50000	0.67237037037037
4	3622	51500	0.66979166666667
4	3622	51500	0.66976851851852
4	3647	52000	0.6487962962963
4	3647	52000	0.64877777777778
4	3774	54500	0.59947222222222
4	3774	54500	0.59945833333333
4	3799	55000	0.59867888888889
4	3799	55000	0.59867888888889
4	3799	55000	0.59859722222222
4	4049	60000	0.59022666666667
4	4049	60000	0.59011111111111
4	4050	60000	0.59011111111111
4	4050	60000	0.59011111111111
4	4050	60000	0.59009722222222
4	4067	60000	0.589875
4	4067	60000	0.58986111111111
4	4068	60000	0.58986111111111
4	4068	60000	0.58984722222222
4	4069	60000	0.58984722222222
4	4069	60000	0.58983333333333
4	4070	60000	0.58983333333333
4	4070	60000	0.58981944444444
4	4300	64500	0.58215740740741
4	4300	64500	0.58213425925926
4	4328	65000	0.56200092592593
4	4328	65000	0.56200092592593
4	4328	65000	0.56113888888889
4	4329	65000	0.56113888888889
4	4329	65000	0.56112037037037
4	4453	67500	0.51181481481481
4	4453	67500	0.51180092592593
4	4580	70000	0.50763259259259
4	4580	70000	0.50755092592593
4	4581	70000	0.50755092592593
4	4581	70000	0.50755092592593
4	4581	70000	0.50753703703704
4	4598	70000	0.50731481481481
4	4598	70000	0.50730092592593
4	4599	70000	0.50730092592593
4	4599	70000	0.50728703703704
4	4600	70000	0.50728703703704
4	4600	70000	0.50727314814815
4	4601	70000	0.50727314814815
4	4601	70000	0.50725925925926
4	4855	75000	0.49885166666667
4	4855	75000	0.49885166666667
4	4855	75000	0.49873611111111
4	4982	77500	0.4945
4	4982	77500	0.49447685185185
4	5007	78000	0.47350462962963
4	5007	78000	0.47348611111111
4	5110	80000	0.43443611111111
4	5110	80000	0.43402314814815
4	5111	80000	0.43402314814815
4	5111	80000	0.43402314814815
4	5111	80000	0.43400462962963
4	5128	80000	0.43378240740741
4	5128	80000	0.43376388888889
4	5129	80000	0.43376388888889
4	5129	80000	0.43374537037037
4	5130	80000	0.43374537037037
4	5130	80000	0.43372685185185
4	5131	80000	0.43372685185185
4	5131	80000	0.43370833333333
4	5160	80500	0.42381018518519
4	5160	80500	0.4237962962963
4	5386	85000	0.41623907407407
4	5386	85000	0.41623907407407
4	5386	85000	0.41615740740741
4	5636	90000	0.40778685185185
4	5636	90000	0.4076712962963
4	5637	90000	0.4076712962963
4	5637	90000	0.4076712962963
4	5637	90000	0.40765740740741
4	5654	90000	0.40743518518519
4	5654	90000	0.4074212962963
4	5655	90000	0.4074212962963
4	5655	90000	0.40740740740741
4	5656	90000	0.40740740740741
4	5656	90000	0.40739351851852
4	5657	90000	0.40739351851852
4	5657	90000	0.40737962962963
4	5689	90500	0.40649537037037
4	5689	90500	0.40647222222222
4	5714	91000	0.3855
4	5714	91000	0.38548148148148
4	5841	93500	0.33617592592593
4	5841	93500	0.33616203703704
4	5917	95000	0.33365425925926
4	5917	95000	0.33365425925926
4	5917	95000	0.33360648148148
4	6167	100000	0.32520203703704
4	6167	100000	0.32512037037037
4	6168	100000	0.32512037037037
4	6168	100000	0.32512037037037
4	6168	100000	0.32510648148148
4	6185	100000	0.32488425925926
4	6185	100000	0.32487037037037
4	6186	100000	0.32487037037037
4	6186	100000	0.32485648148148
4	6187	100000	0.32485648148148
4	6187	100000	0.32484259259259
4	6188	100000	0.32484259259259
4	6188	100000	0.3248287037037
4	6367	103500	0.31886111111111
4	6367	103500	0.31883796296296
4	6395	104000	0.29786574074074
4	6395	104000	0.29784722222222
4	6444	105000	0.27930833333333
4	6444	105000	0.27930833333333
4	6444	105000	0.27810648148148
4	6520	106500	0.24852314814815
4	6520	106500	0.24850925925926
4	6698	110000	0.24261259259259
4	6698	110000	0.24256481481481
4	6699	110000	0.24256481481481
4	6699	110000	0.24256481481481
4	6699	110000	0.24255092592593
4	6716	110000	0.2423287037037
4	6716	110000	0.24231481481481
4	6717	110000	0.24231481481481
4	6717	110000	0.24230092592593
4	6718	110000	0.24230092592593
4	6718	110000	0.24228703703704
4	6719	110000	0.24228703703704
4	6719	110000	0.24227314814815
4	6973	115000	0.23383166666667
4	6973	115000	0.23383166666667
4	6973	115000	0.23375
4	7049	116500	0.23120833333333
4	7049	116500	0.23118518518519
4	7074	117000	0.21021296296296
4	7074	117000	0.21019444444444
4	7201	119500	0.16088888888889
4	7201	119500	0.160875
4	7226	120000	0.16012944444444
4	7226	120000	0.16001388888889
4	7227	120000	0.16001388888889
4	7227	120000	0.16001388888889
4	7227	120000	0.16
4	7244	120000	0.15977777777778
4	7244	120000	0.15976388888889
4	7245	120000	0.15976388888889
4	7245	120000	0.15975
4	7246	120000	0.15975
4	7246	120000	0.15973611111111
4	7247	120000	0.15973611111111
4	7247	120000	0.15972222222222
4	7504	125000	0.15124685185185
4	7504	125000	0.15124685185185
4	7504	125000	0.15119907407407
4	7730	129500	0.14357407407407
4	7730	129500	0.14355092592593
4	7755	130000	0.12425648148148
4	7755	130000	0.12255555555556
4	7756	130000	0.12255555555556
4	7756	130000	0.12255555555556
4	7756	130000	0.12253240740741
4	7757	130000	0.12253240740741
4	7757	130000	0.12251388888889
4	7774	130000	0.12229166666667
4	7774	130000	0.12227314814815
4	7775	130000	0.12227314814815
4	7775	130000	0.12225462962963
4	7776	130000	0.12225462962963
4	7776	130000	0.12223611111111
4	7777	130000	0.12223611111111
4	7777	130000	0.12221759259259
4	7908	132500	0.072875
4	7908	132500	0.072861111111111
4	8032	135000	0.068726666666667
4	8032	135000	0.068726666666667
4	8032	135000	0.068611111111111
4	8285	140000	0.060172777777778
4	8285	140000	0.060125
4	8286	140000	0.060125
4	8286	140000	0.060125
4	8286	140000	0.060111111111111
4	8303	140000	0.059888888888889
4	8303	140000	0.059875
4	8304	140000	0.059875
4	8304	140000	0.059861111111111
4	8305	140000	0.059861111111111
4	8305	140000	0.059847222222222
4	8306	140000	0.059847222222222
4	8306	140000	0.059833333333333
4	8434	142500	0.055560185185185
4	8434	142500	0.055537037037037
4	8462	143000	0.034564814814815
4	8462	143000	0.034546296296296
5	0	0	10800000
5	25	0	10798000
5	25	0	10797800
5	26	0	10797800
5	26	0	10797600
5	27	0	10797600
5	27	0	10797400
5	28	0	10797400
5	28	0	10797200
5	205	2500	10264300
5	205	2500	10264150
5	377	5000	10218766
5	377	5000	10218766
5	377	5000	10218250
5	717	10000	10127482
5	717	10000	10126600
5	719	10000	10126600
5	719	10000	10126600
5	719	10000	10126450
5	753	10000	10124050
5	753	10000	10123900
5	754	10000	10123900
5	754	10000	10123750
5	755	10000	10123750
5	755	10000	10123600
5	756	10000	10123600
5	756	10000	10123450
5	940	12500	10077300
5	940	12500	10077050
5	973	13000	9850550
5	973	13000	9850350
5	1108	15000	9437130
5	1108	15000	9437130
5	1108	15000	9424150
5	1147	15500	9317650
5	1147	15500	9317500
5	1451	20000	9235516
5	1451	20000	9235000
5	1453	20000	9235000
5	1453	20000	9235000
5	1453	20000	9234850
5	1487	20000	9232450
5	1487	20000	9232300
5	1488	20000	9232300
5	1488	20000	9232150
5	1489	20000	9232150
5	1489	20000	9232000
5	1490	20000	9232000
5	1490	20000	9231850
5	1841	25000	9140682
5	1841	25000	9140682
5	1841	25000	9139800
5	1875	25500	9130650
5	1875	25500	9130400
5	1912	26000	8903900
5	1912	26000	8903700
5	2080	28500	8371200
5	2080	28500	8371050
5	2183	30000	8344698
5	2183	30000	8343450
5	2185	30000	8343450
5	2185	30000	8343450
5	2185	30000	8343300
5	2220	30000	8340900
5	2220	30000	8340750
5	2221	30000	8340750
5	2221	30000	8340600
5	2222	30000	8340600
5	2222	30000	8340450
5	2223	30000	8340450
5	2223	30000	8340300
5	2575	35000	8248766
5	2575	35000	8248766
5	2575	35000	8248250
5	2812	38500	8184200
5	2812	38500	8183950
5	2847	39000	7957450
5	2847	39000	7957250
5	2917	40000	7752770
5	2917	40000	7744050
5	2919	40000	7744050
5	2919	40000	7744050
5	2919	40000	7743850
5	2953	40000	7741450
5	2953	40000	7741250
5	2954	40000	7741250
5	2954	40000	7741050
5	2955	40000	7741050
5	2955	40000	7740850
5	2956	40000	7740850
5	2956	40000	7740650
5	3069	41500	7420750
5	3069	41500	7420600
5	3268	45000	7357648
5	3268	45000	7357648
5	3268	45000	7356400
5	3521	50000	7265266
5	3521	50000	7264750
5	3522	50000	7264750
5	3522	50000	7264750
5	3522	50000	7264600
5	3539	50000	7262200
5	3539	50000	7262050
5	3540	50000	7262050
5	3540	50000	7261900
5	3541	50000	7261900
5	3541	50000	7261750
5	3542	50000	7261750
5	3542	50000	7261600
5	3622	51500	7233750
5	3622	51500	7233500
5	3647	52000	7007000
5	3647	52000	7006800
5	3774	54500	6474300
5	3774	54500	6474150
5	3799	55000	6465732
5	3799	55000	6465732
5	3799	55000	6464850
5	4049	60000	6374448
5	4049	60000	6373200
5	4050	60000	6373200
5	4050	60000	6373200
5	4050	60000	6373050
5	4067	60000	6370650
5	4067	60000	6370500
5	4068	60000	6370500
5	4068	60000	6370350
5	4069	60000	6370350
5	4069	60000	6370200
5	4070	60000	6370200
5	4070	60000	6370050
5	4300	64500	6287300
5	4300	64500	6287050
5	4328	65000	6069610
5	4328	65000	6069610
5	4328	65000	6060300
5	4329	65000	6060300
5	4329	65000	6060100
5	4453	67500	5527600
5	4453	67500	5527450
5	4580	70000	5482432
5	4580	70000	5481550
5	4581	70000	5481550
5	4581	70000	5481550
5	4581	70000	5481400
5	4598	70000	5479000
5	4598	70000	5478850
5	4599	70000	5478850
5	4599	70000	5478700
5	4600	70000	5478700
5	4600	70000	5478550
5	4601	70000	5478550
5	4601	70000	5478400
5	4855	75000	5387598
5	4855	75000	5387598
5	4855	75000	5386350
5	4982	77500	5340600
5	4982	77500	5340350
5	5007	78000	5113850
5	5007	78000	5113650
5	5110	80000	4691910
5	5110	80000	4687450
5	5111	80000	4687450
5	5111	80000	4687450
5	5111	80000	4687250
5	5128	80000	4684850
5	5128	80000	4684650
5	5129	80000	4684650
5	5129	80000	4684450
5	5130	80000	4684450
5	5130	80000	4684250
5	5131	80000	4684250
5	5131	80000	4684050
5	5160	80500	4577150
5	5160	80500	4577000
5	5386	85000	4495382
5	5386	85000	4495382
5	5386	85000	4494500
5	5636	90000	4404098
5	5636	90000	4402850
5	5637	90000	4402850
5	5637	90000	4402850
5	5637	90000	4402700
5	5654	90000	4400300
5	5654	90000	4400150
5	5655	90000	4400150
5	5655	90000	4400000
5	5656	90000	4400000
5	5656	90000	4399850
5	5657	90000	4399850
5	5657	90000	4399700
5	5689	90500	4390150
5	5689	90500	4389900
5	5714	91000	4163400
5	5714	91000	4163200
5	5841	93500	3630700
5	5841	93500	3630550
5	5917	95000	3603466
5	5917	95000	3603466
5	5917	95000	3602950
5	6167	100000	3512182
5	6167	100000	3511300
5	6168	100000	3511300
5	6168	100000	3511300
5	6168	100000	3511150
5	6185	100000	3508750
5	6185	100000	3508600
5	6186	100000	3508600
5	6186	100000	3508450
5	6187	100000	3508450
5	6187	100000	3508300
5	6188	100000	3508300
5	6188	100000	3508150
5	6367	103500	3443700
5	6367	103500	3443450
5	6395	104000	3216950
5	6395	104000	3216750
5	6444	105000	3016530
5	6444	105000	3016530
5	6444	105000	3003550
5	6520	106500	2684050
5	6520	106500	2683900
5	6698	110000	2620216
5	6698	110000	2619700
5	6699	110000	2619700
5	6699	110000	2619700
5	6699	110000	2619550
5	6716	110000	2617150
5	6716	110000	2617000
5	6717	110000	2617000
5	6717	110000	2616850
5	6718	110000	2616850
5	6718	110000	2616700
5	6719	110000	2616700
5	6719	110000	2616550
5	6973	115000	2525382
5	6973	115000	2525382
5	6973	115000	2524500
5	7049	116500	2497050
5	7049	116500	2496800
5	7074	117000	2270300
5	7074	117000	2270100
5	7201	119500	1737600
5	7201	119500	1737450
5	7226	120000	1729398
5	7226	120000	1728150
5	7227	120000	1728150
5	7227	120000	1728150
5	7227	120000	1728000
5	7244	120000	1725600
5	7244	120000	1725450
5	7245	120000	1725450
5	7245	120000	1725300
5	7246	120000	1725300
5	7246	120000	1725150
5	7247	120000	1725150
5	7247	120000	1725000
5	7504	125000	1633466
5	7504	125000	1633466
5	7504	125000	1632950
5	7730	129500	1550600
5	7730	129500	1550350
5	7755	130000	1341970
5	7755	130000	1323600
5	7756	130000	1323600
5	7756	130000	1323600
5	7756	130000	1323350
5	7757	130000	1323350
5	7757	130000	1323150
5	7774	130000	1320750
5	7774	130000	1320550
5	7775	130000	1320550
5	7775	130000	1320350
5	7776	130000	1320350
5	7776	130000	1320150
5	7777	130000	1320150
5	7777	130000	1319950
5	7908	132500	787050
5	7908	132500	786900
5	8032	135000	742248
5	8032	135000	742248
5	8032	135000	741000
5	8285	140000	649866
5	8285	140000	649350
5	8286	140000	649350
5	8286	140000	649350
5	8286	140000	649200
5	8303	140000	646800
5	8303	140000	646650
5	8304	140000	646650
5	8304	140000	646500
5	8305	140000	646500
5	8305	140000	646350
5	8306	140000	646350
5	8306	140000	646200
5	8434	142500	600050
5	8434	142500	599800
5	8462	143000	373300
5	8462	143000	373100
9	0	0	3
9	29	0	3
9	29	0	3
9	30	0	3
9	30	0	3
9	31	0	3
9	31	0	3
9	32	0	3
9	32	0	3
9	206	2500	3
9	206	2500	3
9	207	2500	3
9	207	2500	3
9	240	3000	3
9	240	3000	3
9	378	5000	3
9	378	5000	3
9	378	5000	3
9	411	5500	3
9	411	5500	3
9	412	5500	3
9	412	5500	3
9	445	6000	3
9	445	6000	3
9	614	8500	3
9	614	8500	3
9	615	8500	3
9	615	8500	3
9	648	9000	3
9	648	9000	3
9	718	10000	3
9	718	10000	3
9	720	10000	3
9	720	10000	3
9	720	10000	3
9	757	10000	3
9	757	10000	3
9	758	10000	3
9	758	10000	3
9	759	10000	3
9	759	10000	3
9	760	10000	3
9	760	10000	3
9	869	11500	3
9	869	11500	3
9	870	11500	3
9	870	11500	3
9	903	12000	3
9	903	12000	3
9	1074	14500	3
9	1074	14500	3
9	1075	14500	3
9	1075	14500	3
9	1109	15000	3
9	1109	15000	3
9	1109	15000	3
9	1110	15000	3
9	1110	15000	3
9	1280	17500	3
9	1280	17500	3
9	1281	17500	3
9	1281	17500	3
9	1314	18000	3
9	1314	18000	3
9	1452	20000	3
9	1452	20000	3
9	1454	20000	3
9	1454	20000	3
9	1454	20000	3
9	1491	20000	3
9	1491	20000	3
9	1492	20000	3
9	1492	20000	3
9	1493	20000	3
9	1493	20000	3
9	1494	20000	3
9	1494	20000	3
9	1535	20500	3
9	1535	20500	3
9	1536	20500	3
9	1536	20500	3
9	1569	21000	3
9	1569	21000	3
9	1738	23500	3
9	1738	23500	3
9	1739	23500	3
9	1739	23500	3
9	1772	24000	3
9	1772	24000	3
9	1842	25000	3
9	1842	25000	3
9	1842	25000	3
9	1945	26500	3
9	1945	26500	3
9	1946	26500	3
9	1946	26500	3
9	1979	27000	3
9	1979	27000	3
9	2149	29500	3
9	2149	29500	3
9	2150	29500	3
9	2150	29500	3
9	2184	30000	3
9	2184	30000	3
9	2186	30000	3
9	2186	30000	3
9	2186	30000	3
9	2187	30000	3
9	2187	30000	3
9	2224	30000	3
9	2224	30000	3
9	2225	30000	3
9	2225	30000	3
9	2226	30000	3
9	2226	30000	3
9	2227	30000	3
9	2227	30000	3
9	2404	32500	3
9	2404	32500	3
9	2405	32500	3
9	2405	32500	3
9	2438	33000	3
9	2438	33000	3
9	2576	35000	3
9	2576	35000	3
9	2576	35000	3
9	2609	35500	3
9	2609	35500	3
9	2610	35500	3
9	2610	35500	3
9	2643	36000	3
9	2643	36000	3
9	2813	38500	3
9	2813	38500	3
9	2814	38500	3
9	2814	38500	3
9	2848	39000	3
9	2848	39000	3
9	2918	40000	3
9	2918	40000	3
9	2920	40000	3
9	2920	40000	3
9	2920	40000	3
9	2957	40000	3
9	2957	40000	3
9	2958	40000	3
9	2958	40000	3
9	2959	40000	3
9	2959	40000	3
9	2960	40000	3
9	2960	40000	3
9	3070	41500	3
9	3070	41500	3
9	3071	41500	3
9	3071	41500	3
9	3104	42000	3
9	3104	42000	3
10	0	0	1
10	29	0	0.99981481481481
10	29	0	0.9997962962963
10	30	0	0.9997962962963
10	30	0	0.99977777777778
10	31	0	0.99977777777778
10	31	0	0.99975925925926
10	32	0	0.99975925925926
10	32	0	0.99974074074074
10	206	2500	0.95039814814815
10	206	2500	0.95038425925926
10	207	2500	0.95038425925926
10	207	2500	0.95036111111111
10	240	3000	0.92938888888889
10	240	3000	0.92937037037037
10	378	5000	0.89032037037037
10	378	5000	0.89032037037037
10	378	5000	0.88990740740741
10	411	5500	0.8800462962963
10	411	5500	0.88003240740741
10	412	5500	0.88003240740741
10	412	5500	0.88000925925926
10	445	6000	0.85903703703704
10	445	6000	0.85901851851852
10	614	8500	0.80971296296296
10	614	8500	0.80969907407407
10	615	8500	0.80969907407407
10	615	8500	0.80967592592593
10	648	9000	0.7887037037037
10	648	9000	0.78868518518519
10	718	10000	0.76975185185185
10	718	10000	0.76894444444444
10	720	10000	0.76894444444444
10	720	10000	0.76894444444444
10	720	10000	0.76892592592593
10	757	10000	0.7687037037037
10	757	10000	0.76868518518519
10	758	10000	0.76868518518519
10	758	10000	0.76866666666667
10	759	10000	0.76866666666667
10	759	10000	0.76864814814815
10	760	10000	0.76864814814815
10	760	10000	0.76862962962963
10	869	11500	0.73900925925926
10	869	11500	0.73899537037037
10	870	11500	0.73899537037037
10	870	11500	0.73897222222222
10	903	12000	0.718
10	903	12000	0.71798148148148
10	1074	14500	0.66867592592593
10	1074	14500	0.66866203703704
10	1075	14500	0.66866203703704
10	1075	14500	0.66863888888889
10	1109	15000	0.65018333333333
10	1109	15000	0.65018333333333
10	1109	15000	0.64764351851852
10	1110	15000	0.64764351851852
10	1110	15000	0.647625
10	1280	17500	0.59831944444444
10	1280	17500	0.59830555555556
10	1281	17500	0.59830555555556
10	1281	17500	0.59828240740741
10	1314	18000	0.57731018518519
10	1314	18000	0.57729166666667
10	1452	20000	0.53824166666667
10	1452	20000	0.5378287037037
10	1454	20000	0.5378287037037
10	1454	20000	0.5378287037037
10	1454	20000	0.53781018518519
10	1491	20000	0.53758796296296
10	1491	20000	0.53756944444444
10	1492	20000	0.53756944444444
10	1492	20000	0.53755092592593
10	1493	20000	0.53755092592593
10	1493	20000	0.53753240740741
10	1494	20000	0.53753240740741
10	1494	20000	0.53751388888889
10	1535	20500	0.52761574074074
10	1535	20500	0.52760185185185
10	1536	20500	0.52760185185185
10	1536	20500	0.5275787037037
10	1569	21000	0.50660648148148
10	1569	21000	0.50658796296296
10	1738	23500	0.45728240740741
10	1738	23500	0.45726851851852
10	1739	23500	0.45726851851852
10	1739	23500	0.45724537037037
10	1772	24000	0.43627314814815
10	1772	24000	0.43625462962963
10	1842	25000	0.4173212962963
10	1842	25000	0.4173212962963
10	1842	25000	0.41651388888889
10	1945	26500	0.38693055555556
10	1945	26500	0.38691666666667
10	1946	26500	0.38691666666667
10	1946	26500	0.38689351851852
10	1979	27000	0.3659212962963
10	1979	27000	0.36590277777778
10	2149	29500	0.31659722222222
10	2149	29500	0.31658333333333
10	2150	29500	0.31658333333333
10	2150	29500	0.31656018518519
10	2184	30000	0.29810462962963
10	2184	30000	0.29556481481481
10	2186	30000	0.29556481481481
10	2186	30000	0.29556481481481
10	2186	30000	0.29554166666667
10	2187	30000	0.29554166666667
10	2187	30000	0.29552314814815
10	2224	30000	0.29530092592593
10	2224	30000	0.29528240740741
10	2225	30000	0.29528240740741
10	2225	30000	0.29526388888889
10	2226	30000	0.29526388888889
10	2226	30000	0.29524537037037
10	2227	30000	0.29524537037037
10	2227	30000	0.29522685185185
10	2404	32500	0.24588425925926
10	2404	32500	0.24587037037037
10	2405	32500	0.24587037037037
10	2405	32500	0.24584722222222
10	2438	33000	0.224875
10	2438	33000	0.22485648148148
10	2576	35000	0.18580648148148
10	2576	35000	0.18580648148148
10	2576	35000	0.18539351851852
10	2609	35500	0.17553240740741
10	2609	35500	0.17551851851852
10	2610	35500	0.17551851851852
10	2610	35500	0.17549537037037
10	2643	36000	0.15452314814815
10	2643	36000	0.15450462962963
10	2813	38500	0.10519907407407
10	2813	38500	0.10518518518519
10	2814	38500	0.10518518518519
10	2814	38500	0.10516203703704
10	2848	39000	0.084189814814815
10	2848	39000	0.084171296296296
10	2918	40000	0.065237962962963
10	2918	40000	0.064430555555556
10	2920	40000	0.064430555555556
10	2920	40000	0.064430555555556
10	2920	40000	0.064412037037037
10	2957	40000	0.064189814814815
10	2957	40000	0.064171296296296
10	2958	40000	0.064171296296296
10	2958	40000	0.064152777777778
10	2959	40000	0.064152777777778
10	2959	40000	0.064134259259259
10	2960	40000	0.064134259259259
10	2960	40000	0.064115740740741
10	3070	41500	0.03449537037037
10	3070	41500	0.034481481481481
10	3071	41500	0.034481481481481
10	3071	41500	0.034458333333333
10	3104	42000	0.013486111111111
10	3104	42000	0.013467592592593
11	0	0	10800000
11	29	0	10798000
11	29	0	10797800
11	30	0	10797800
11	30	0	10797600
11	31	0	10797600
11	31	0	10797400
11	32	0	10797400
11	32	0	10797200
11	206	2500	10264300
11	206	2500	10264150
11	207	2500	10264150
11	207	2500	10263900
11	240	3000	10037400
11	240	3000	10037200
11	378	5000	9615460
11	378	5000	9615460
11	378	5000	9611000
11	411	5500	9504500
11	411	5500	9504350
11	412	5500	9504350
11	412	5500	9504100
11	445	6000	9277600
11	445	6000	9277400
11	614	8500	8744900
11	614	8500	8744750
11	615	8500	8744750
11	615	8500	8744500
11	648	9000	8518000
11	648	9000	8517800
11	718	10000	8313320
11	718	10000	8304600
11	720	10000	8304600
11	720	10000	8304600
11	720	10000	8304400
11	757	10000	8302000
11	757	10000	8301800
11	758	10000	8301800
11	758	10000	8301600
11	759	10000	8301600
11	759	10000	8301400
11	760	10000	8301400
11	760	10000	8301200
11	869	11500	7981300
11	869	11500	7981150
11	870	11500	7981150
11	870	11500	7980900
11	903	12000	7754400
11	903	12000	7754200
11	1074	14500	7221700
11	1074	14500	7221550
11	1075	14500	7221550
11	1075	14500	7221300
11	1109	15000	7021980
11	1109	15000	7021980
11	1109	15000	6994550
11	1110	15000	6994550
11	1110	15000	6994350
11	1280	17500	6461850
11	1280	17500	6461700
11	1281	17500	6461700
11	1281	17500	6461450
11	1314	18000	6234950
11	1314	18000	6234750
11	1452	20000	5813010
11	1452	20000	5808550
11	1454	20000	5808550
11	1454	20000	5808550
11	1454	20000	5808350
11	1491	20000	5805950
11	1491	20000	5805750
11	1492	20000	5805750
11	1492	20000	5805550
11	1493	20000	5805550
11	1493	20000	5805350
11	1494	20000	5805350
11	1494	20000	5805150
11	1535	20500	5698250
11	1535	20500	5698100
11	1536	20500	5698100
11	1536	20500	5697850
11	1569	21000	5471350
11	1569	21000	5471150
11	1738	23500	4938650
11	1738	23500	4938500
11	1739	23500	4938500
11	1739	23500	4938250
11	1772	24000	4711750
11	1772	24000	4711550
11	1842	25000	4507070
11	1842	25000	4507070
11	1842	25000	4498350
11	1945	26500	4178850
11	1945	26500	4178700
11	1946	26500	4178700
11	1946	26500	4178450
11	1979	27000	3951950
11	1979	27000	3951750
11	2149	29500	3419250
11	2149	29500	3419100
11	2150	29500	3419100
11	2150	29500	3418850
11	2184	30000	3219530
11	2184	30000	3192100
11	2186	30000	3192100
11	2186	30000	3192100
11	2186	30000	3191850
11	2187	30000	3191850
11	2187	30000	3191650
11	2224	30000	3189250
11	2224	30000	3189050
11	2225	30000	3189050
11	2225	30000	3188850
11	2226	30000	3188850
11	2226	30000	3188650
11	2227	30000	3188650
11	2227	30000	3188450
11	2404	32500	2655550
11	2404	32500	2655400
11	2405	32500	2655400
11	2405	32500	2655150
11	2438	33000	2428650
11	2438	33000	2428450