version 2
run General-0-20151123-13:48:23-13111
attr configname General
attr datetime 20151123-13:48:23
attr experiment General
attr inifile omnetpp.ini
attr iterationvars ""
attr iterationvars2 $repetition=0
attr measurement ""
attr network WakeUpRecv
attr processid 13111
attr repetition 0
attr replication #0
attr resultdir results
attr runnumber 0
attr seedset 0

vector 6  WakeUpRecv.node1.batteryStats  capacity  ETV
attr unit  mW-s
vector 7  WakeUpRecv.node1.batteryStats  capacity(relative)  ETV
vector 8  WakeUpRecv.node1.batteryStats  estimate  ETV
attr unit  mW-s
vector 9  WakeUpRecv.node1.batteryStats  estimate(relative)  ETV
vector 17  WakeUpRecv.node2.batteryStats  capacity  ETV
attr unit  mW-s
vector 18  WakeUpRecv.node2.batteryStats  capacity(relative)  ETV
vector 19  WakeUpRecv.node2.batteryStats  estimate  ETV
attr unit  mW-s
vector 20  WakeUpRecv.node2.batteryStats  estimate(relative)  ETV
vector 28  WakeUpRecv.node3.batteryStats  capacity  ETV
attr unit  mW-s
vector 29  WakeUpRecv.node3.batteryStats  capacity(relative)  ETV
vector 30  WakeUpRecv.node3.batteryStats  estimate  ETV
attr unit  mW-s
vector 31  WakeUpRecv.node3.batteryStats  estimate(relative)  ETV
6	0	0	11880000
6	4	1	11879937.96
6	10	2	11879875.92
6	34	3	11879813.882513
6	56	4	11879751.845027
6	78	5	11879689.80754
6	100	6	11879627.770053
6	122	7	11879565.732566
6	155	8	11879503.69508
6	182	9	11879441.657593
6	209	10	11879379.620106
6	236	11	11879317.582619
6	263	12	11879255.545133
6	287	13	11879193.507646
6	309	14	11879131.470159
6	331	15	11879069.432673
6	353	16	11879007.395186
6	375	17	11878945.357699
6	408	18	11878883.320212
6	435	19	11878821.282726
6	462	20	11878759.245239
6	489	21	11878697.207752
6	516	22	11878635.170266
6	540	23	11878573.132779
6	562	24	11878511.095292
6	584	25	11878449.057805
6	606	26	11878387.020319
7	0	0	1
7	4	1	0.99999477777778
7	10	2	0.99998955555556
7	34	3	0.99998433354489
7	56	4	0.99997911153422
7	78	5	0.99997388952356
7	100	6	0.99996866751289
7	122	7	0.99996344550222
7	155	8	0.99995822349155
7	182	9	0.99995300148089
7	209	10	0.99994777947022
7	236	11	0.99994255745955
7	263	12	0.99993733544889
7	287	13	0.99993211343822
7	309	14	0.99992689142755
7	331	15	0.99992166941689
7	353	16	0.99991644740622
7	375	17	0.99991122539555
7	408	18	0.99990600338489
7	435	19	0.99990078137422
7	462	20	0.99989555936355
7	489	21	0.99989033735288
7	516	22	0.99988511534222
7	540	23	0.99987989333155
7	562	24	0.99987467132088
7	584	25	0.99986944931022
7	606	26	0.99986422729955
8	0	0	11880000
8	4	1	11879937.96
8	10	2	11879875.92
8	34	3	11879813.882513
8	56	4	11879751.845027
8	78	5	11879689.80754
8	100	6	11879627.770053
8	122	7	11879565.732566
8	155	8	11879503.69508
8	182	9	11879441.657593
8	209	10	11879379.620106
8	236	11	11879317.582619
8	263	12	11879255.545133
8	287	13	11879193.507646
8	309	14	11879131.470159
8	331	15	11879069.432673
8	353	16	11879007.395186
8	375	17	11878945.357699
8	408	18	11878883.320212
8	435	19	11878821.282726
8	462	20	11878759.245239
8	489	21	11878697.207752
8	516	22	11878635.170266
8	540	23	11878573.132779
8	562	24	11878511.095292
8	584	25	11878449.057805
8	606	26	11878387.020319
9	0	0	1
9	4	1	0.99999477777778
9	10	2	0.99998955555556
9	34	3	0.99998433354489
9	56	4	0.99997911153422
9	78	5	0.99997388952356
9	100	6	0.99996866751289
9	122	7	0.99996344550222
9	155	8	0.99995822349155
9	182	9	0.99995300148089
9	209	10	0.99994777947022
9	236	11	0.99994255745955
9	263	12	0.99993733544889
9	287	13	0.99993211343822
9	309	14	0.99992689142755
9	331	15	0.99992166941689
9	353	16	0.99991644740622
9	375	17	0.99991122539555
9	408	18	0.99990600338489
9	435	19	0.99990078137422
9	462	20	0.99989555936355
9	489	21	0.99989033735288
9	516	22	0.99988511534222
9	540	23	0.99987989333155
9	562	24	0.99987467132088
9	584	25	0.99986944931022
9	606	26	0.99986422729955
17	0	0	11880000
17	5	1	11879937.96
17	11	2	11879875.92
17	35	3	11879875.879859
17	57	4	11879875.87979
17	79	5	11879875.879721
17	101	6	11879875.879652
17	123	7	11879875.879582
17	156	8	11879813.990568
17	183	9	11879751.950568
17	210	10	11879689.910568
17	237	11	11879627.870568
17	264	12	11879565.830568
17	288	13	11879565.751668
17	310	14	11879565.751599
17	332	15	11879565.751529
17	354	16	11879565.75146
17	376	17	11879565.751391
17	409	18	11879503.906512
17	436	19	11879441.866512
17	463	20	11879379.826512
17	490	21	11879317.786512
17	517	22	11879255.746512
17	541	23	11879255.612999
17	563	24	11879255.61293
17	585	25	11879255.612861
17	607	26	11879255.612791
18	0	0	1
18	5	1	0.99999477777778
18	11	2	0.99998955555556
18	35	3	0.99998955217672
18	57	4	0.99998955217089
18	79	5	0.99998955216506
18	101	6	0.99998955215922
18	123	7	0.99998955215339
18	156	8	0.99998434264043
18	183	9	0.9999791204182
18	210	10	0.99997389819598
18	237	11	0.99996867597376
18	264	12	0.99996345375154
18	288	13	0.99996344711009
18	310	14	0.99996344710425
18	332	15	0.99996344709842
18	354	16	0.99996344709259
18	376	17	0.99996344708675
18	409	18	0.99995824128886
18	436	19	0.99995301906664
18	463	20	0.99994779684442
18	490	21	0.9999425746222
18	517	22	0.99993735239998
18	541	23	0.99993734116156
18	563	24	0.99993734115572
18	585	25	0.99993734114989
18	607	26	0.99993734114406
19	0	0	11880000
19	5	1	11879937.96
19	11	2	11879875.92
19	35	3	11879875.879859
19	57	4	11879875.87979
19	79	5	11879875.879721
19	101	6	11879875.879652
19	123	7	11879875.879582
19	156	8	11879813.990568
19	183	9	11879751.950568
19	210	10	11879689.910568
19	237	11	11879627.870568
19	264	12	11879565.830568
19	288	13	11879565.751668
19	310	14	11879565.751599
19	332	15	11879565.751529
19	354	16	11879565.75146
19	376	17	11879565.751391
19	409	18	11879503.906512
19	436	19	11879441.866512
19	463	20	11879379.826512
19	490	21	11879317.786512
19	517	22	11879255.746512
19	541	23	11879255.612999
19	563	24	11879255.61293
19	585	25	11879255.612861
19	607	26	11879255.612791
20	0	0	1
20	5	1	0.99999477777778
20	11	2	0.99998955555556
20	35	3	0.99998955217672
20	57	4	0.99998955217089
20	79	5	0.99998955216506
20	101	6	0.99998955215922
20	123	7	0.99998955215339
20	156	8	0.99998434264043
20	183	9	0.9999791204182
20	210	10	0.99997389819598
20	237	11	0.99996867597376
20	264	12	0.99996345375154
20	288	13	0.99996344711009
20	310	14	0.99996344710425
20	332	15	0.99996344709842
20	354	16	0.99996344709259
20	376	17	0.99996344708675
20	409	18	0.99995824128886
20	436	19	0.99995301906664
20	463	20	0.99994779684442
20	490	21	0.9999425746222
20	517	22	0.99993735239998
20	541	23	0.99993734116156
20	563	24	0.99993734115572
20	585	25	0.99993734114989
20	607	26	0.99993734114406
28	0	0	11880000
28	6	1	11879937.96
28	12	2	11879875.92
28	36	3	11879875.896084
28	58	4	11879875.896014
28	80	5	11879875.895945
28	102	6	11879875.895876
28	124	7	11879875.895806
28	157	8	11879814.014198
28	184	9	11879751.974198
28	211	10	11879689.934198
28	238	11	11879627.894198
28	265	12	11879565.854198
28	289	13	11879565.778765
28	311	14	11879565.778696
28	333	15	11879565.778627
28	355	16	11879565.778557
28	377	17	11879565.778488
28	410	18	11879503.957356
28	437	19	11879441.917356
28	464	20	11879379.877356
28	491	21	11879317.837356
28	518	22	11879255.797356
28	542	23	11879255.657515
28	564	24	11879255.657446
28	586	25	11879255.657377
28	608	26	11879255.657308
29	0	0	1
29	6	1	0.99999477777778
29	12	2	0.99998955555556
29	36	3	0.9999895535424
29	58	4	0.99998955353656
29	80	5	0.99998955353073
29	102	6	0.9999895535249
29	124	7	0.99998955351906
29	157	8	0.99998434462943
29	184	9	0.99997912240721
29	211	10	0.99997390018499
29	238	11	0.99996867796277
29	265	12	0.99996345574055
29	289	13	0.99996344939101
29	311	14	0.99996344938517
29	333	15	0.99996344937934
29	355	16	0.99996344937351
29	377	17	0.99996344936767
29	410	18	0.99995824556868
29	437	19	0.99995302334646
29	464	20	0.99994780112424
29	491	21	0.99994257890202
29	518	22	0.99993735667979
29	542	23	0.99993734490871
29	564	24	0.99993734490287
29	586	25	0.99993734489704
29	608	26	0.99993734489121
30	0	0	11880000
30	6	1	11879937.96
30	12	2	11879875.92
30	36	3	11879875.896084
30	58	4	11879875.896014
30	80	5	11879875.895945
30	102	6	11879875.895876
30	124	7	11879875.895806
30	157	8	11879814.014198
30	184	9	11879751.974198
30	211	10	11879689.934198
30	238	11	11879627.894198
30	265	12	11879565.854198
30	289	13	11879565.778765
30	311	14	11879565.778696
30	333	15	11879565.778627
30	355	16	11879565.778557
30	377	17	11879565.778488
30	410	18	11879503.957356
30	437	19	11879441.917356
30	464	20	11879379.877356
30	491	21	11879317.837356
30	518	22	11879255.797356
30	542	23	11879255.657515
30	564	24	11879255.657446
30	586	25	11879255.657377
30	608	26	11879255.657308
31	0	0	1
31	6	1	0.99999477777778
31	12	2	0.99998955555556
31	36	3	0.9999895535424
31	58	4	0.99998955353656
31	80	5	0.99998955353073
31	102	6	0.9999895535249
31	124	7	0.99998955351906
31	157	8	0.99998434462943
31	184	9	0.99997912240721
31	211	10	0.99997390018499
31	238	11	0.99996867796277
31	265	12	0.99996345574055
31	289	13	0.99996344939101
31	311	14	0.99996344938517
31	333	15	0.99996344937934
31	355	16	0.99996344937351
31	377	17	0.99996344936767
31	410	18	0.99995824556868
31	437	19	0.99995302334646
31	464	20	0.99994780112424
31	491	21	0.99994257890202
31	518	22	0.99993735667979
31	542	23	0.99993734490871
31	564	24	0.99993734490287
31	586	25	0.99993734489704
31	608	26	0.99993734489121
