version 2
run General-0-20151123-13:22:49-8499
attr configname General
attr datetime 20151123-13:22:49
attr experiment General
attr inifile omnetpp.ini
attr iterationvars ""
attr iterationvars2 $repetition=0
attr measurement ""
attr network WakeUpRecv
attr processid 8499
attr repetition 0
attr replication #0
attr resultdir results
attr runnumber 0
attr seedset 0

vector 6  WakeUpRecv.node1.batteryStats  capacity  ETV
attr unit  mW-s
vector 7  WakeUpRecv.node1.batteryStats  capacity(relative)  ETV
vector 8  WakeUpRecv.node1.batteryStats  estimate  ETV
attr unit  mW-s
vector 9  WakeUpRecv.node1.batteryStats  estimate(relative)  ETV
vector 17  WakeUpRecv.node2.batteryStats  capacity  ETV
attr unit  mW-s
vector 18  WakeUpRecv.node2.batteryStats  capacity(relative)  ETV
vector 19  WakeUpRecv.node2.batteryStats  estimate  ETV
attr unit  mW-s
vector 20  WakeUpRecv.node2.batteryStats  estimate(relative)  ETV
vector 28  WakeUpRecv.node3.batteryStats  capacity  ETV
attr unit  mW-s
vector 29  WakeUpRecv.node3.batteryStats  capacity(relative)  ETV
vector 30  WakeUpRecv.node3.batteryStats  estimate  ETV
attr unit  mW-s
vector 31  WakeUpRecv.node3.batteryStats  estimate(relative)  ETV
6	0	0	11880000
6	4	1	11879937.96
6	10	2	11879875.92
6	17	3	11879813.88
6	39	4	11879751.842513
6	62	5	11879689.805027
6	84	6	11879627.76754
6	106	7	11879565.730053
6	136	8	11879503.692566
7	0	0	1
7	4	1	0.99999477777778
7	10	2	0.99998955555556
7	17	3	0.99998433333333
7	39	4	0.99997911132267
7	62	5	0.999973889312
7	84	6	0.99996866730133
7	106	7	0.99996344529067
7	136	8	0.99995822328
8	0	0	11880000
8	4	1	11879937.96
8	10	2	11879875.92
8	17	3	11879813.88
8	39	4	11879751.842513
8	62	5	11879689.805027
8	84	6	11879627.76754
8	106	7	11879565.730053
8	136	8	11879503.692566
9	0	0	1
9	4	1	0.99999477777778
9	10	2	0.99998955555556
9	17	3	0.99998433333333
9	39	4	0.99997911132267
9	62	5	0.999973889312
9	84	6	0.99996866730133
9	106	7	0.99996344529067
9	136	8	0.99995822328
17	0	0	11880000
17	5	1	11879937.96
17	11	2	11879875.92
17	18	3	11879875.879859
17	40	4	11879875.87979
17	63	5	11879875.879721
17	85	6	11879875.879652
17	107	7	11879875.879582
17	137	8	11879814.014198
18	0	0	1
18	5	1	0.99999477777778
18	11	2	0.99998955555556
18	18	3	0.99998955217672
18	40	4	0.99998955217089
18	63	5	0.99998955216506
18	85	6	0.99998955215922
18	107	7	0.99998955215339
18	137	8	0.99998434462943
19	0	0	11880000
19	5	1	11879937.96
19	11	2	11879875.92
19	18	3	11879875.879859
19	40	4	11879875.87979
19	63	5	11879875.879721
19	85	6	11879875.879652
19	107	7	11879875.879582
19	137	8	11879814.014198
20	0	0	1
20	5	1	0.99999477777778
20	11	2	0.99998955555556
20	18	3	0.99998955217672
20	40	4	0.99998955217089
20	63	5	0.99998955216506
20	85	6	0.99998955215922
20	107	7	0.99998955215339
20	137	8	0.99998434462943
28	0	0	11880000
28	6	1	11879937.96
28	12	2	11879875.92
28	19	3	11879813.88
28	41	4	11879751.84
28	64	5	11879751.816084
28	86	6	11879751.816014
28	108	7	11879751.815945
28	138	8	11879751.815876
29	0	0	1
29	6	1	0.99999477777778
29	12	2	0.99998955555556
29	19	3	0.99998433333333
29	41	4	0.99997911111111
29	64	5	0.99997910909795
29	86	6	0.99997910909212
29	108	7	0.99997910908629
29	138	8	0.99997910908045
30	0	0	11880000
30	6	1	11879937.96
30	12	2	11879875.92
30	19	3	11879813.88
30	41	4	11879751.84
30	64	5	11879751.816084
30	86	6	11879751.816014
30	108	7	11879751.815945
30	138	8	11879751.815876
31	0	0	1
31	6	1	0.99999477777778
31	12	2	0.99998955555556
31	19	3	0.99998433333333
31	41	4	0.99997911111111
31	64	5	0.99997910909795
31	86	6	0.99997910909212
31	108	7	0.99997910908629
31	138	8	0.99997910908045
