version 2
run General-0-20150715-09:20:56-28792
attr configname General
attr datetime 20150715-09:20:56
attr experiment General
attr inifile omnetpp.ini
attr iterationvars ""
attr iterationvars2 $repetition=0
attr measurement ""
attr network WakeUpRecv
attr processid 28792
attr repetition 0
attr replication #0
attr resultdir results
attr runnumber 0
attr seedset 0

vector 6  WakeUpRecv.node1.batteryStats  capacity  ETV
attr unit  mW-s
vector 7  WakeUpRecv.node1.batteryStats  capacity(relative)  ETV
vector 8  WakeUpRecv.node1.batteryStats  estimate  ETV
attr unit  mW-s
vector 9  WakeUpRecv.node1.batteryStats  estimate(relative)  ETV
vector 17  WakeUpRecv.node2.batteryStats  capacity  ETV
attr unit  mW-s
vector 18  WakeUpRecv.node2.batteryStats  capacity(relative)  ETV
vector 19  WakeUpRecv.node2.batteryStats  estimate  ETV
attr unit  mW-s
vector 20  WakeUpRecv.node2.batteryStats  estimate(relative)  ETV
vector 28  WakeUpRecv.node3.batteryStats  capacity  ETV
attr unit  mW-s
vector 29  WakeUpRecv.node3.batteryStats  capacity(relative)  ETV
vector 30  WakeUpRecv.node3.batteryStats  estimate  ETV
attr unit  mW-s
vector 31  WakeUpRecv.node3.batteryStats  estimate(relative)  ETV
6	0	0	11880000
6	4	1	11879937.96
6	10	2	11879875.92
6	17	3	11879813.88
6	23	4	11879751.84
6	50	5	11879689.802513
6	76	6	11879627.765027
6	101	7	11879565.72754
6	129	8	11879503.690053
6	154	9	11879441.652566
6	179	10	11879379.61508
6	209	11	11879317.577593
6	236	12	11879255.540106
6	264	13	11879193.502619
6	291	14	11879131.465133
6	318	15	11879069.427646
6	344	16	11879007.390159
7	0	0	1
7	4	1	0.99999477777778
7	10	2	0.99998955555556
7	17	3	0.99998433333333
7	23	4	0.99997911111111
7	50	5	0.99997388910044
7	76	6	0.99996866708978
7	101	7	0.99996344507911
7	129	8	0.99995822306844
7	154	9	0.99995300105778
7	179	10	0.99994777904711
7	209	11	0.99994255703644
7	236	12	0.99993733502578
7	264	13	0.99993211301511
7	291	14	0.99992689100444
7	318	15	0.99992166899378
7	344	16	0.99991644698311
8	0	0	11880000
8	4	1	11879937.96
8	10	2	11879875.92
8	17	3	11879813.88
8	23	4	11879751.84
8	50	5	11879689.802513
8	76	6	11879627.765027
8	101	7	11879565.72754
8	129	8	11879503.690053
8	154	9	11879441.652566
8	179	10	11879379.61508
8	209	11	11879317.577593
8	236	12	11879255.540106
8	264	13	11879193.502619
8	291	14	11879131.465133
8	318	15	11879069.427646
8	344	16	11879007.390159
9	0	0	1
9	4	1	0.99999477777778
9	10	2	0.99998955555556
9	17	3	0.99998433333333
9	23	4	0.99997911111111
9	50	5	0.99997388910044
9	76	6	0.99996866708978
9	101	7	0.99996344507911
9	129	8	0.99995822306844
9	154	9	0.99995300105778
9	179	10	0.99994777904711
9	209	11	0.99994255703644
9	236	12	0.99993733502578
9	264	13	0.99993211301511
9	291	14	0.99992689100444
9	318	15	0.99992166899378
9	344	16	0.99991644698311
17	0	0	11880000
17	5	1	11879937.96
17	11	2	11879875.92
17	18	3	11879813.88
17	24	4	11879751.84
17	51	5	11879689.8
17	77	6	11879689.759859
17	102	7	11879689.75979
17	130	8	11879689.759721
17	155	9	11879689.759652
17	180	10	11879689.759582
17	210	11	11879627.890838
17	237	12	11879565.850838
17	265	13	11879503.810838
17	292	14	11879441.770838
17	319	15	11879379.730838
17	345	16	11879379.634619
18	0	0	1
18	5	1	0.99999477777778
18	11	2	0.99998955555556
18	18	3	0.99998433333333
18	24	4	0.99997911111111
18	51	5	0.99997388888889
18	77	6	0.99997388551006
18	102	7	0.99997388550422
18	130	8	0.99997388549839
18	155	9	0.99997388549256
18	180	10	0.99997388548672
18	210	11	0.99996867768001
18	237	12	0.99996345545779
18	265	13	0.99995823323556
18	292	14	0.99995301101334
18	319	15	0.99994778879112
18	345	16	0.99994778069183
19	0	0	11880000
19	5	1	11879937.96
19	11	2	11879875.92
19	18	3	11879813.88
19	24	4	11879751.84
19	51	5	11879689.8
19	77	6	11879689.759859
19	102	7	11879689.75979
19	130	8	11879689.759721
19	155	9	11879689.759652
19	180	10	11879689.759582
19	210	11	11879627.890838
19	237	12	11879565.850838
19	265	13	11879503.810838
19	292	14	11879441.770838
19	319	15	11879379.730838
19	345	16	11879379.634619
20	0	0	1
20	5	1	0.99999477777778
20	11	2	0.99998955555556
20	18	3	0.99998433333333
20	24	4	0.99997911111111
20	51	5	0.99997388888889
20	77	6	0.99997388551006
20	102	7	0.99997388550422
20	130	8	0.99997388549839
20	155	9	0.99997388549256
20	180	10	0.99997388548672
20	210	11	0.99996867768001
20	237	12	0.99996345545779
20	265	13	0.99995823323556
20	292	14	0.99995301101334
20	319	15	0.99994778879112
20	345	16	0.99994778069183
28	0	0	11880000
28	6	1	11879937.96
28	12	2	11879875.92
28	19	3	11879875.896084
28	25	4	11879875.896014
28	52	5	11879875.895945
28	78	6	11879875.895876
28	103	7	11879875.895806
28	131	8	11879814.014198
28	156	9	11879751.974198
28	181	10	11879689.934198
28	211	11	11879627.894198
28	238	12	11879565.854198
28	266	13	11879565.782201
28	293	14	11879565.782132
28	320	15	11879565.782063
28	346	16	11879565.781994
29	0	0	1
29	6	1	0.99999477777778
29	12	2	0.99998955555556
29	19	3	0.9999895535424
29	25	4	0.99998955353656
29	52	5	0.99998955353073
29	78	6	0.9999895535249
29	103	7	0.99998955351906
29	131	8	0.99998434462943
29	156	9	0.99997912240721
29	181	10	0.99997390018499
29	211	11	0.99996867796277
29	238	12	0.99996345574055
29	266	13	0.99996344968026
29	293	14	0.99996344967442
29	320	15	0.99996344966859
29	346	16	0.99996344966276
30	0	0	11880000
30	6	1	11879937.96
30	12	2	11879875.92
30	19	3	11879875.896084
30	25	4	11879875.896014
30	52	5	11879875.895945
30	78	6	11879875.895876
30	103	7	11879875.895806
30	131	8	11879814.014198
30	156	9	11879751.974198
30	181	10	11879689.934198
30	211	11	11879627.894198
30	238	12	11879565.854198
30	266	13	11879565.782201
30	293	14	11879565.782132
30	320	15	11879565.782063
30	346	16	11879565.781994
31	0	0	1
31	6	1	0.99999477777778
31	12	2	0.99998955555556
31	19	3	0.9999895535424
31	25	4	0.99998955353656
31	52	5	0.99998955353073
31	78	6	0.9999895535249
31	103	7	0.99998955351906
31	131	8	0.99998434462943
31	156	9	0.99997912240721
31	181	10	0.99997390018499
31	211	11	0.99996867796277
31	238	12	0.99996345574055
31	266	13	0.99996344968026
31	293	14	0.99996344967442
31	320	15	0.99996344966859
31	346	16	0.99996344966276
