version 2
run General-0-20151120-09:31:31-5442
attr configname General
attr datetime 20151120-09:31:31
attr experiment General
attr inifile omnetpp.ini
attr iterationvars ""
attr iterationvars2 $repetition=0
attr measurement ""
attr network WakeUpRecv
attr processid 5442
attr repetition 0
attr replication #0
attr resultdir results
attr runnumber 0
attr seedset 0

vector 39  WakeUpRecv.node1.batteryStats  capacity  ETV
attr unit  mW-s
vector 40  WakeUpRecv.node1.batteryStats  capacity(relative)  ETV
vector 41  WakeUpRecv.node1.batteryStats  estimate  ETV
attr unit  mW-s
vector 42  WakeUpRecv.node1.batteryStats  estimate(relative)  ETV
vector 50  WakeUpRecv.node2.batteryStats  capacity  ETV
attr unit  mW-s
vector 51  WakeUpRecv.node2.batteryStats  capacity(relative)  ETV
vector 52  WakeUpRecv.node2.batteryStats  estimate  ETV
attr unit  mW-s
vector 53  WakeUpRecv.node2.batteryStats  estimate(relative)  ETV
vector 61  WakeUpRecv.node3.batteryStats  capacity  ETV
attr unit  mW-s
vector 62  WakeUpRecv.node3.batteryStats  capacity(relative)  ETV
vector 63  WakeUpRecv.node3.batteryStats  estimate  ETV
attr unit  mW-s
vector 64  WakeUpRecv.node3.batteryStats  estimate(relative)  ETV
39	0	0	11880000
39	4	1	11879937.96
39	10	2	11879875.92
39	16	3	11879813.88
39	22	4	11879751.84
39	28	5	11879689.8
39	52	6	11879627.762513
39	74	7	11879565.725027
39	96	8	11879503.68754
39	118	9	11879441.650053
39	140	10	11879379.612566
39	173	11	11879317.57508
40	0	0	1
40	4	1	0.99999477777778
40	10	2	0.99998955555556
40	16	3	0.99998433333333
40	22	4	0.99997911111111
40	28	5	0.99997388888889
40	52	6	0.99996866687822
40	74	7	0.99996344486756
40	96	8	0.99995822285689
40	118	9	0.99995300084622
40	140	10	0.99994777883555
40	173	11	0.99994255682489
41	0	0	11880000
41	4	1	11879937.96
41	10	2	11879875.92
41	16	3	11879813.88
41	22	4	11879751.84
41	28	5	11879689.8
41	52	6	11879627.762513
41	74	7	11879565.725027
41	96	8	11879503.68754
41	118	9	11879441.650053
41	140	10	11879379.612566
41	173	11	11879317.57508
42	0	0	1
42	4	1	0.99999477777778
42	10	2	0.99998955555556
42	16	3	0.99998433333333
42	22	4	0.99997911111111
42	28	5	0.99997388888889
42	52	6	0.99996866687822
42	74	7	0.99996344486756
42	96	8	0.99995822285689
42	118	9	0.99995300084622
42	140	10	0.99994777883555
42	173	11	0.99994255682489
50	0	0	11880000
50	5	1	11879937.96
50	11	2	11879875.92
50	17	3	11879813.88
50	23	4	11879751.84
50	29	5	11879689.8
50	53	6	11879689.759859
50	75	7	11879689.75979
50	97	8	11879689.759721
50	119	9	11879689.759652
50	141	10	11879689.759582
51	0	0	1
51	5	1	0.99999477777778
51	11	2	0.99998955555556
51	17	3	0.99998433333333
51	23	4	0.99997911111111
51	29	5	0.99997388888889
51	53	6	0.99997388551006
51	75	7	0.99997388550422
51	97	8	0.99997388549839
51	119	9	0.99997388549256
51	141	10	0.99997388548672
52	0	0	11880000
52	5	1	11879937.96
52	11	2	11879875.92
52	17	3	11879813.88
52	23	4	11879751.84
52	29	5	11879689.8
52	53	6	11879689.759859
52	75	7	11879689.75979
52	97	8	11879689.759721
52	119	9	11879689.759652
52	141	10	11879689.759582
53	0	0	1
53	5	1	0.99999477777778
53	11	2	0.99998955555556
53	17	3	0.99998433333333
53	23	4	0.99997911111111
53	29	5	0.99997388888889
53	53	6	0.99997388551006
53	75	7	0.99997388550422
53	97	8	0.99997388549839
53	119	9	0.99997388549256
53	141	10	0.99997388548672
61	0	0	11880000
61	6	1	11879937.96
61	12	2	11879875.92
61	18	3	11879813.88
61	24	4	11879751.84
61	30	5	11879689.8
61	54	6	11879689.776084
61	76	7	11879689.776014
61	98	8	11879689.775945
61	120	9	11879689.775876
61	142	10	11879689.775806
62	0	0	1
62	6	1	0.99999477777778
62	12	2	0.99998955555556
62	18	3	0.99998433333333
62	24	4	0.99997911111111
62	30	5	0.99997388888889
62	54	6	0.99997388687573
62	76	7	0.9999738868699
62	98	8	0.99997388686406
62	120	9	0.99997388685823
62	142	10	0.9999738868524
63	0	0	11880000
63	6	1	11879937.96
63	12	2	11879875.92
63	18	3	11879813.88
63	24	4	11879751.84
63	30	5	11879689.8
63	54	6	11879689.776084
63	76	7	11879689.776014
63	98	8	11879689.775945
63	120	9	11879689.775876
63	142	10	11879689.775806
64	0	0	1
64	6	1	0.99999477777778
64	12	2	0.99998955555556
64	18	3	0.99998433333333
64	24	4	0.99997911111111
64	30	5	0.99997388888889
64	54	6	0.99997388687573
64	76	7	0.9999738868699
64	98	8	0.99997388686406
64	120	9	0.99997388685823
64	142	10	0.9999738868524
