version 2
run General-0-20150522-10:52:18-6070
attr configname General
attr datetime 20150522-10:52:18
attr experiment General
attr inifile omnetpp.ini
attr iterationvars ""
attr iterationvars2 $repetition=0
attr measurement ""
attr network SleepOutOfSync
attr processid 6070
attr repetition 0
attr replication #0
attr resultdir results
attr runnumber 0
attr seedset 0

vector 3  SleepOutOfSync.TNode1.Processor  "power mode"  ETV
vector 4  SleepOutOfSync.TNode1.Processor  "Sensor Modules Status"  ETV
vector 5  SleepOutOfSync.TNode1.Processor  Voltage  ETV
vector 6  SleepOutOfSync.TNode1.Processor  residualRelative  ETV
vector 7  SleepOutOfSync.TNode1.Processor  residualAbs  ETV
vector 11  SleepOutOfSync.TNode2.Processor  "power mode"  ETV
vector 12  SleepOutOfSync.TNode2.Processor  "Sensor Modules Status"  ETV
vector 13  SleepOutOfSync.TNode2.Processor  Voltage  ETV
vector 14  SleepOutOfSync.TNode2.Processor  residualRelative  ETV
vector 15  SleepOutOfSync.TNode2.Processor  residualAbs  ETV
vector 17  SleepOutOfSync.TNode1.TemperatureSensor.SensingUnit  "Energy Consumptions"  ETV
vector 18  SleepOutOfSync.TNode1.TemperatureSensor.SensingUnit  "Current use over time"  ETV
vector 19  SleepOutOfSync.TNode1.TemperatureSensor.SignalConditioner  "Energy Consumptions"  ETV
vector 20  SleepOutOfSync.TNode1.TemperatureSensor.SignalConditioner  "Current use over time"  ETV
vector 21  SleepOutOfSync.TNode1.TemperatureSensor.SignalConverter  "Energy Consumptions"  ETV
vector 22  SleepOutOfSync.TNode1.TemperatureSensor.SignalConverter  "Current use over time"  ETV
vector 23  SleepOutOfSync.TNode1.TemperatureSensor.Transducer  "Energy Consumptions"  ETV
vector 24  SleepOutOfSync.TNode1.TemperatureSensor.Transducer  "Current use over time"  ETV
vector 25  SleepOutOfSync.TNode1.Memory  "Energy Consumptions"  ETV
vector 26  SleepOutOfSync.TNode1.Memory  "Current use over time"  ETV
vector 28  SleepOutOfSync.TNode2.TemperatureSensor.SensingUnit  "Energy Consumptions"  ETV
vector 29  SleepOutOfSync.TNode2.TemperatureSensor.SensingUnit  "Current use over time"  ETV
vector 30  SleepOutOfSync.TNode2.TemperatureSensor.SignalConditioner  "Energy Consumptions"  ETV
vector 31  SleepOutOfSync.TNode2.TemperatureSensor.SignalConditioner  "Current use over time"  ETV
vector 32  SleepOutOfSync.TNode2.TemperatureSensor.SignalConverter  "Energy Consumptions"  ETV
vector 33  SleepOutOfSync.TNode2.TemperatureSensor.SignalConverter  "Current use over time"  ETV
vector 34  SleepOutOfSync.TNode2.TemperatureSensor.Transducer  "Energy Consumptions"  ETV
vector 35  SleepOutOfSync.TNode2.TemperatureSensor.Transducer  "Current use over time"  ETV
vector 36  SleepOutOfSync.TNode2.Memory  "Energy Consumptions"  ETV
vector 37  SleepOutOfSync.TNode2.Memory  "Current use over time"  ETV
3	0	0	0
3	0	0	0
3	176	2500	1
3	868	12500	2
3	904	13000	0
3	904	13000	0
3	1076	15500	1
3	1764	25500	2
3	1802	26000	0
3	1802	26000	0
3	1970	28500	1
3	2662	38500	2
3	2696	39000	0
3	2696	39000	0
3	2882	41500	1
3	3574	51500	2
3	3608	52000	0
3	3608	52000	0
3	3780	54500	1
3	4468	64500	2
3	4508	65000	0
3	4508	65000	0
3	4676	67500	1
4	0	0	0
4	8	0	0
4	684	10000	1
4	696	10000	0
4	1380	20000	1
4	1392	20000	0
4	2072	30000	1
4	2084	30000	0
4	2766	40000	1
4	2778	40000	0
4	3458	50000	1
4	3470	50000	0
4	4150	60000	1
4	4162	60000	0
5	0	0	3
5	8	0	3
5	8	0	3
5	176	2500	3
5	176	2500	3
5	177	2500	3
5	177	2500	3
5	177	2500	3
5	348	5000	3
5	348	5000	3
5	348	5000	3
5	514	7500	3
5	514	7500	3
5	514	7500	3
5	684	10000	3
5	684	10000	3
5	686	10000	3
5	686	10000	3
5	686	10000	3
5	696	10000	3
5	696	10000	3
5	868	12500	3
5	868	12500	3
5	870	12500	3
5	870	12500	3
5	870	12500	3
5	904	13000	3
5	904	13000	3
5	1038	15000	3
5	1038	15000	3
5	1038	15000	3
5	1076	15500	3
5	1076	15500	3
5	1210	17500	3
5	1210	17500	3
5	1210	17500	3
5	1380	20000	3
5	1380	20000	3
5	1382	20000	3
5	1382	20000	3
5	1382	20000	3
5	1392	20000	3
5	1392	20000	3
5	1560	22500	3
5	1560	22500	3
5	1560	22500	3
5	1730	25000	3
5	1730	25000	3
5	1730	25000	3
5	1764	25500	3
5	1764	25500	3
5	1802	26000	3
5	1802	26000	3
5	1904	27500	3
5	1904	27500	3
5	1904	27500	3
5	1970	28500	3
5	1970	28500	3
5	2072	30000	3
5	2072	30000	3
5	2074	30000	3
5	2074	30000	3
5	2074	30000	3
5	2084	30000	3
5	2084	30000	3
5	2256	32500	3
5	2256	32500	3
5	2256	32500	3
5	2426	35000	3
5	2426	35000	3
5	2426	35000	3
5	2592	37500	3
5	2592	37500	3
5	2592	37500	3
5	2662	38500	3
5	2662	38500	3
5	2696	39000	3
5	2696	39000	3
5	2766	40000	3
5	2766	40000	3
5	2768	40000	3
5	2768	40000	3
5	2768	40000	3
5	2778	40000	3
5	2778	40000	3
5	2882	41500	3
5	2882	41500	3
5	2952	42500	3
5	2952	42500	3
5	2952	42500	3
5	3118	45000	3
5	3118	45000	3
5	3118	45000	3
5	3288	47500	3
5	3288	47500	3
5	3288	47500	3
5	3458	50000	3
5	3458	50000	3
5	3460	50000	3
5	3460	50000	3
5	3460	50000	3
5	3470	50000	3
5	3470	50000	3
5	3574	51500	3
5	3574	51500	3
5	3608	52000	3
5	3608	52000	3
5	3642	52500	3
5	3642	52500	3
5	3642	52500	3
5	3780	54500	3
5	3780	54500	3
5	3814	55000	3
5	3814	55000	3
5	3814	55000	3
5	3984	57500	3
5	3984	57500	3
5	3984	57500	3
5	4150	60000	3
5	4150	60000	3
5	4152	60000	3
5	4152	60000	3
5	4152	60000	3
5	4162	60000	3
5	4162	60000	3
5	4334	62500	3
5	4334	62500	3
5	4334	62500	3
5	4468	64500	3
5	4468	64500	3
5	4506	65000	3
5	4506	65000	3
5	4506	65000	3
5	4508	65000	3
5	4508	65000	3
5	4674	67500	3
5	4674	67500	3
5	4674	67500	3
5	4676	67500	3
5	4676	67500	3
6	0	0	1
6	8	0	0.9999537037037
6	8	0	0.99993518518519
6	176	2500	0.97562037037037
6	176	2500	0.97560648148148
6	177	2500	0.97560648148148
6	177	2500	0.97560648148148
6	177	2500	0.97559259259259
6	348	5000	0.97387037037037
6	348	5000	0.97387037037037
6	348	5000	0.97384259259259
6	514	7500	0.97214814814815
6	514	7500	0.97214814814815
6	514	7500	0.97209259259259
6	684	10000	0.97038425925926
6	684	10000	0.97034259259259
6	686	10000	0.97034259259259
6	686	10000	0.97034259259259
6	686	10000	0.9703287037037
6	696	10000	0.97027314814815
6	696	10000	0.97025925925926
6	868	12500	0.96851388888889
6	868	12500	0.96849537037037
6	870	12500	0.96849537037037
6	870	12500	0.96849537037037
6	870	12500	0.96847685185185
6	904	13000	0.96361574074074
6	904	13000	0.96359722222222
6	1038	15000	0.94473611111111
6	1038	15000	0.94473611111111
6	1038	15000	0.94413425925926
6	1076	15500	0.93927314814815
6	1076	15500	0.93925925925926
6	1210	17500	0.93789814814815
6	1210	17500	0.93789814814815
6	1210	17500	0.93785648148148
6	1380	20000	0.93613425925926
6	1380	20000	0.93610648148148
6	1382	20000	0.93610648148148
6	1382	20000	0.93610648148148
6	1382	20000	0.93609259259259
6	1392	20000	0.93603703703704
6	1392	20000	0.93602314814815
6	1560	22500	0.93431944444444
6	1560	22500	0.93431944444444
6	1560	22500	0.93426388888889
6	1730	25000	0.93255555555556
6	1730	25000	0.93255555555556
6	1730	25000	0.93251388888889
6	1764	25500	0.93216666666667
6	1764	25500	0.93214814814815
6	1802	26000	0.92728703703704
6	1802	26000	0.92726851851852
6	1904	27500	0.91287962962963
6	1904	27500	0.91287962962963
6	1904	27500	0.91266666666667
6	1970	28500	0.90294444444444
6	1970	28500	0.90293055555556
6	2072	30000	0.90193055555556
6	2072	30000	0.901875
6	2074	30000	0.901875
6	2074	30000	0.901875
6	2074	30000	0.90186111111111
6	2084	30000	0.90180555555556
6	2084	30000	0.90179166666667
6	2256	32500	0.90007407407407
6	2256	32500	0.90007407407407
6	2256	32500	0.90003240740741
6	2426	35000	0.89831018518519
6	2426	35000	0.89831018518519
6	2426	35000	0.89828240740741
6	2592	37500	0.89658796296296
6	2592	37500	0.89658796296296
6	2592	37500	0.89653240740741
6	2662	38500	0.89583796296296
6	2662	38500	0.89581944444444
6	2696	39000	0.89095833333333
6	2696	39000	0.89093981481481
6	2766	40000	0.88160648148148
6	2766	40000	0.88119907407407
6	2768	40000	0.88119907407407
6	2768	40000	0.88119907407407
6	2768	40000	0.88118055555556
6	2778	40000	0.881125
6	2778	40000	0.88110648148148
6	2882	41500	0.86651388888889
6	2882	41500	0.8665
6	2952	42500	0.86581944444444
6	2952	42500	0.86581944444444
6	2952	42500	0.86579166666667
6	3118	45000	0.86409722222222
6	3118	45000	0.86409722222222
6	3118	45000	0.86404166666667
6	3288	47500	0.86233333333333
6	3288	47500	0.86233333333333
6	3288	47500	0.86229166666667
6	3458	50000	0.86056944444444
6	3458	50000	0.86054166666667
6	3460	50000	0.86054166666667
6	3460	50000	0.86054166666667
6	3460	50000	0.86052777777778
6	3470	50000	0.86047222222222
6	3470	50000	0.86045833333333
6	3574	51500	0.85940740740741
6	3574	51500	0.85938888888889
6	3608	52000	0.85452777777778
6	3608	52000	0.85450925925926
6	3642	52500	0.85023148148148
6	3642	52500	0.85023148148148
6	3642	52500	0.84962962962963
6	3780	54500	0.83018518518519
6	3780	54500	0.8301712962963
6	3814	55000	0.82985185185185
6	3814	55000	0.82985185185185
6	3814	55000	0.82981018518519
6	3984	57500	0.82808796296296
6	3984	57500	0.82808796296296
6	3984	57500	0.82806018518519
6	4150	60000	0.82636574074074
6	4150	60000	0.82631018518519
6	4152	60000	0.82631018518519
6	4152	60000	0.82631018518519
6	4152	60000	0.8262962962963
6	4162	60000	0.82624074074074
6	4162	60000	0.82622685185185
6	4334	62500	0.82450925925926
6	4334	62500	0.82450925925926
6	4334	62500	0.82446759259259
6	4468	64500	0.8230787037037
6	4468	64500	0.82306018518519
6	4506	65000	0.81839351851852
6	4506	65000	0.81839351851852
6	4506	65000	0.81818055555556
6	4508	65000	0.81818055555556
6	4508	65000	0.81816203703704
6	4674	67500	0.79443981481481
6	4674	67500	0.79443981481481
6	4674	67500	0.79383796296296
6	4676	67500	0.79383796296296
6	4676	67500	0.79382407407407
7	0	0	10800000
7	8	0	10799500
7	8	0	10799300
7	176	2500	10536700
7	176	2500	10536550
7	177	2500	10536550
7	177	2500	10536550
7	177	2500	10536400
7	348	5000	10517800
7	348	5000	10517800
7	348	5000	10517500
7	514	7500	10499200
7	514	7500	10499200
7	514	7500	10498600
7	684	10000	10480150
7	684	10000	10479700
7	686	10000	10479700
7	686	10000	10479700
7	686	10000	10479550
7	696	10000	10478950
7	696	10000	10478800
7	868	12500	10459950
7	868	12500	10459750
7	870	12500	10459750
7	870	12500	10459750
7	870	12500	10459550
7	904	13000	10407050
7	904	13000	10406850
7	1038	15000	10203150
7	1038	15000	10203150
7	1038	15000	10196650
7	1076	15500	10144150
7	1076	15500	10144000
7	1210	17500	10129300
7	1210	17500	10129300
7	1210	17500	10128850
7	1380	20000	10110250
7	1380	20000	10109950
7	1382	20000	10109950
7	1382	20000	10109950
7	1382	20000	10109800
7	1392	20000	10109200
7	1392	20000	10109050
7	1560	22500	10090650
7	1560	22500	10090650
7	1560	22500	10090050
7	1730	25000	10071600
7	1730	25000	10071600
7	1730	25000	10071150
7	1764	25500	10067400
7	1764	25500	10067200
7	1802	26000	10014700
7	1802	26000	10014500
7	1904	27500	9859100
7	1904	27500	9859100
7	1904	27500	9856800
7	1970	28500	9751800
7	1970	28500	9751650
7	2072	30000	9740850
7	2072	30000	9740250
7	2074	30000	9740250
7	2074	30000	9740250
7	2074	30000	9740100
7	2084	30000	9739500
7	2084	30000	9739350
7	2256	32500	9720800
7	2256	32500	9720800
7	2256	32500	9720350
7	2426	35000	9701750
7	2426	35000	9701750
7	2426	35000	9701450
7	2592	37500	9683150
7	2592	37500	9683150
7	2592	37500	9682550
7	2662	38500	9675050
7	2662	38500	9674850
7	2696	39000	9622350
7	2696	39000	9622150
7	2766	40000	9521350
7	2766	40000	9516950
7	2768	40000	9516950
7	2768	40000	9516950
7	2768	40000	9516750
7	2778	40000	9516150
7	2778	40000	9515950
7	2882	41500	9358350
7	2882	41500	9358200
7	2952	42500	9350850
7	2952	42500	9350850
7	2952	42500	9350550
7	3118	45000	9332250
7	3118	45000	9332250
7	3118	45000	9331650
7	3288	47500	9313200
7	3288	47500	9313200
7	3288	47500	9312750
7	3458	50000	9294150
7	3458	50000	9293850
7	3460	50000	9293850
7	3460	50000	9293850
7	3460	50000	9293700
7	3470	50000	9293100
7	3470	50000	9292950
7	3574	51500	9281600
7	3574	51500	9281400
7	3608	52000	9228900
7	3608	52000	9228700
7	3642	52500	9182500
7	3642	52500	9182500
7	3642	52500	9176000
7	3780	54500	8966000
7	3780	54500	8965850
7	3814	55000	8962400
7	3814	55000	8962400
7	3814	55000	8961950
7	3984	57500	8943350
7	3984	57500	8943350
7	3984	57500	8943050
7	4150	60000	8924750
7	4150	60000	8924150
7	4152	60000	8924150
7	4152	60000	8924150
7	4152	60000	8924000
7	4162	60000	8923400
7	4162	60000	8923250
7	4334	62500	8904700
7	4334	62500	8904700
7	4334	62500	8904250
7	4468	64500	8889250
7	4468	64500	8889050
7	4506	65000	8838650
7	4506	65000	8838650
7	4506	65000	8836350
7	4508	65000	8836350
7	4508	65000	8836150
7	4674	67500	8579950
7	4674	67500	8579950
7	4674	67500	8573450
7	4676	67500	8573450
7	4676	67500	8573300
11	0	0	0
11	0	0	0
11	178	2500	1
11	869	12500	2
11	905	13000	0
11	905	13000	0
11	1077	15500	1
11	1765	25500	2
11	1803	26000	0
11	1803	26000	0
11	1971	28500	1
11	2663	38500	2
11	2697	39000	0
11	2697	39000	0
11	2883	41500	1
11	3575	51500	2
11	3609	52000	0
11	3609	52000	0
11	3781	54500	1
11	4469	64500	2
11	4509	65000	0
11	4509	65000	0
11	4677	67500	1
12	0	0	0
12	9	0	0
12	685	10000	1
12	697	10000	0
12	1381	20000	1
12	1393	20000	0
12	2073	30000	1
12	2085	30000	0
12	2767	40000	1
12	2779	40000	0
12	3459	50000	1
12	3471	50000	0
12	4151	60000	1
12	4163	60000	0
13	0	0	3
13	9	0	3
13	9	0	3
13	178	2500	3
13	178	2500	3
13	179	2500	3
13	179	2500	3
13	179	2500	3
13	349	5000	3
13	349	5000	3
13	349	5000	3
13	515	7500	3
13	515	7500	3
13	515	7500	3
13	685	10000	3
13	685	10000	3
13	687	10000	3
13	687	10000	3
13	687	10000	3
13	697	10000	3
13	697	10000	3
13	869	12500	3
13	869	12500	3
13	871	12500	3
13	871	12500	3
13	871	12500	3
13	905	13000	3
13	905	13000	3
13	1039	15000	3
13	1039	15000	3
13	1039	15000	3
13	1077	15500	3
13	1077	15500	3
13	1211	17500	3
13	1211	17500	3
13	1211	17500	3
13	1381	20000	3
13	1381	20000	3
13	1383	20000	3
13	1383	20000	3
13	1383	20000	3
13	1393	20000	3
13	1393	20000	3
13	1561	22500	3
13	1561	22500	3
13	1561	22500	3
13	1731	25000	3
13	1731	25000	3
13	1731	25000	3
13	1765	25500	3
13	1765	25500	3
13	1803	26000	3
13	1803	26000	3
13	1905	27500	3
13	1905	27500	3
13	1905	27500	3
13	1971	28500	3
13	1971	28500	3
13	2073	30000	3
13	2073	30000	3
13	2075	30000	3
13	2075	30000	3
13	2075	30000	3
13	2085	30000	3
13	2085	30000	3
13	2257	32500	3
13	2257	32500	3
13	2257	32500	3
13	2427	35000	3
13	2427	35000	3
13	2427	35000	3
13	2593	37500	3
13	2593	37500	3
13	2593	37500	3
13	2663	38500	3
13	2663	38500	3
13	2697	39000	3
13	2697	39000	3
13	2767	40000	3
13	2767	40000	3
13	2769	40000	3
13	2769	40000	3
13	2769	40000	3
13	2779	40000	3
13	2779	40000	3
13	2883	41500	3
13	2883	41500	3
13	2953	42500	3
13	2953	42500	3
13	2953	42500	3
13	3119	45000	3
13	3119	45000	3
13	3119	45000	3
13	3289	47500	3
13	3289	47500	3
13	3289	47500	3
13	3459	50000	3
13	3459	50000	3
13	3461	50000	3
13	3461	50000	3
13	3461	50000	3
13	3471	50000	3
13	3471	50000	3
13	3575	51500	3
13	3575	51500	3
13	3609	52000	3
13	3609	52000	3
13	3643	52500	3
13	3643	52500	3
13	3643	52500	3
13	3781	54500	3
13	3781	54500	3
13	3815	55000	3
13	3815	55000	3
13	3815	55000	3
13	3985	57500	3
13	3985	57500	3
13	3985	57500	3
13	4151	60000	3
13	4151	60000	3
13	4153	60000	3
13	4153	60000	3
13	4153	60000	3
13	4163	60000	3
13	4163	60000	3
13	4335	62500	3
13	4335	62500	3
13	4335	62500	3
13	4469	64500	3
13	4469	64500	3
13	4507	65000	3
13	4507	65000	3
13	4507	65000	3
13	4509	65000	3
13	4509	65000	3
13	4675	67500	3
13	4675	67500	3
13	4675	67500	3
13	4677	67500	3
13	4677	67500	3
14	0	0	1
14	9	0	0.9999537037037
14	9	0	0.99993518518519
14	178	2500	0.97562037037037
14	178	2500	0.97560648148148
14	179	2500	0.97560648148148
14	179	2500	0.97560648148148
14	179	2500	0.97559259259259
14	349	5000	0.97387037037037
14	349	5000	0.97387037037037
14	349	5000	0.97384259259259
14	515	7500	0.97214814814815
14	515	7500	0.97214814814815
14	515	7500	0.97209259259259
14	685	10000	0.97038425925926
14	685	10000	0.97034259259259
14	687	10000	0.97034259259259
14	687	10000	0.97034259259259
14	687	10000	0.9703287037037
14	697	10000	0.97027314814815
14	697	10000	0.97025925925926
14	869	12500	0.96851388888889
14	869	12500	0.96849537037037
14	871	12500	0.96849537037037
14	871	12500	0.96849537037037
14	871	12500	0.96847685185185
14	905	13000	0.96361574074074
14	905	13000	0.96359722222222
14	1039	15000	0.94473611111111
14	1039	15000	0.94473611111111
14	1039	15000	0.94413425925926
14	1077	15500	0.93927314814815
14	1077	15500	0.93925925925926
14	1211	17500	0.93789814814815
14	1211	17500	0.93789814814815
14	1211	17500	0.93785648148148
14	1381	20000	0.93613425925926
14	1381	20000	0.93610648148148
14	1383	20000	0.93610648148148
14	1383	20000	0.93610648148148
14	1383	20000	0.93609259259259
14	1393	20000	0.93603703703704
14	1393	20000	0.93602314814815
14	1561	22500	0.93431944444444
14	1561	22500	0.93431944444444
14	1561	22500	0.93426388888889
14	1731	25000	0.93255555555556
14	1731	25000	0.93255555555556
14	1731	25000	0.93251388888889
14	1765	25500	0.93216666666667
14	1765	25500	0.93214814814815
14	1803	26000	0.92728703703704
14	1803	26000	0.92726851851852
14	1905	27500	0.91287962962963
14	1905	27500	0.91287962962963
14	1905	27500	0.91266666666667
14	1971	28500	0.90294444444444
14	1971	28500	0.90293055555556
14	2073	30000	0.90193055555556
14	2073	30000	0.901875
14	2075	30000	0.901875
14	2075	30000	0.901875
14	2075	30000	0.90186111111111
14	2085	30000	0.90180555555556
14	2085	30000	0.90179166666667
14	2257	32500	0.90007407407407
14	2257	32500	0.90007407407407
14	2257	32500	0.90003240740741
14	2427	35000	0.89831018518519
14	2427	35000	0.89831018518519
14	2427	35000	0.89828240740741
14	2593	37500	0.89658796296296
14	2593	37500	0.89658796296296
14	2593	37500	0.89653240740741
14	2663	38500	0.89583796296296
14	2663	38500	0.89581944444444
14	2697	39000	0.89095833333333
14	2697	39000	0.89093981481481
14	2767	40000	0.88160648148148
14	2767	40000	0.88119907407407
14	2769	40000	0.88119907407407
14	2769	40000	0.88119907407407
14	2769	40000	0.88118055555556
14	2779	40000	0.881125
14	2779	40000	0.88110648148148
14	2883	41500	0.86651388888889
14	2883	41500	0.8665
14	2953	42500	0.86581944444444
14	2953	42500	0.86581944444444
14	2953	42500	0.86579166666667
14	3119	45000	0.86409722222222
14	3119	45000	0.86409722222222
14	3119	45000	0.86404166666667
14	3289	47500	0.86233333333333
14	3289	47500	0.86233333333333
14	3289	47500	0.86229166666667
14	3459	50000	0.86056944444444
14	3459	50000	0.86054166666667
14	3461	50000	0.86054166666667
14	3461	50000	0.86054166666667
14	3461	50000	0.86052777777778
14	3471	50000	0.86047222222222
14	3471	50000	0.86045833333333
14	3575	51500	0.85940740740741
14	3575	51500	0.85938888888889
14	3609	52000	0.85452777777778
14	3609	52000	0.85450925925926
14	3643	52500	0.85023148148148
14	3643	52500	0.85023148148148
14	3643	52500	0.84962962962963
14	3781	54500	0.83018518518519
14	3781	54500	0.8301712962963
14	3815	55000	0.82985185185185
14	3815	55000	0.82985185185185
14	3815	55000	0.82981018518519
14	3985	57500	0.82808796296296
14	3985	57500	0.82808796296296
14	3985	57500	0.82806018518519
14	4151	60000	0.82636574074074
14	4151	60000	0.82631018518519
14	4153	60000	0.82631018518519
14	4153	60000	0.82631018518519
14	4153	60000	0.8262962962963
14	4163	60000	0.82624074074074
14	4163	60000	0.82622685185185
14	4335	62500	0.82450925925926
14	4335	62500	0.82450925925926
14	4335	62500	0.82446759259259
14	4469	64500	0.8230787037037
14	4469	64500	0.82306018518519
14	4507	65000	0.81839351851852
14	4507	65000	0.81839351851852
14	4507	65000	0.81818055555556
14	4509	65000	0.81818055555556
14	4509	65000	0.81816203703704
14	4675	67500	0.79443981481481
14	4675	67500	0.79443981481481
14	4675	67500	0.79383796296296
14	4677	67500	0.79383796296296
14	4677	67500	0.79382407407407
15	0	0	10800000
15	9	0	10799500
15	9	0	10799300
15	178	2500	10536700
15	178	2500	10536550
15	179	2500	10536550
15	179	2500	10536550
15	179	2500	10536400
15	349	5000	10517800
15	349	5000	10517800
15	349	5000	10517500
15	515	7500	10499200
15	515	7500	10499200
15	515	7500	10498600
15	685	10000	10480150
15	685	10000	10479700
15	687	10000	10479700
15	687	10000	10479700
15	687	10000	10479550
15	697	10000	10478950
15	697	10000	10478800
15	869	12500	10459950
15	869	12500	10459750
15	871	12500	10459750
15	871	12500	10459750
15	871	12500	10459550
15	905	13000	10407050
15	905	13000	10406850
15	1039	15000	10203150
15	1039	15000	10203150
15	1039	15000	10196650
15	1077	15500	10144150
15	1077	15500	10144000
15	1211	17500	10129300
15	1211	17500	10129300
15	1211	17500	10128850
15	1381	20000	10110250
15	1381	20000	10109950
15	1383	20000	10109950
15	1383	20000	10109950
15	1383	20000	10109800
15	1393	20000	10109200
15	1393	20000	10109050
15	1561	22500	10090650
15	1561	22500	10090650
15	1561	22500	10090050
15	1731	25000	10071600
15	1731	25000	10071600
15	1731	25000	10071150
15	1765	25500	10067400
15	1765	25500	10067200
15	1803	26000	10014700
15	1803	26000	10014500
15	1905	27500	9859100
15	1905	27500	9859100
15	1905	27500	9856800
15	1971	28500	9751800
15	1971	28500	9751650
15	2073	30000	9740850
15	2073	30000	9740250
15	2075	30000	9740250
15	2075	30000	9740250
15	2075	30000	9740100
15	2085	30000	9739500
15	2085	30000	9739350
15	2257	32500	9720800
15	2257	32500	9720800
15	2257	32500	9720350
15	2427	35000	9701750
15	2427	35000	9701750
15	2427	35000	9701450
15	2593	37500	9683150
15	2593	37500	9683150
15	2593	37500	9682550
15	2663	38500	9675050
15	2663	38500	9674850
15	2697	39000	9622350
15	2697	39000	9622150
15	2767	40000	9521350
15	2767	40000	9516950
15	2769	40000	9516950
15	2769	40000	9516950
15	2769	40000	9516750
15	2779	40000	9516150
15	2779	40000	9515950
15	2883	41500	9358350
15	2883	41500	9358200
15	2953	42500	9350850
15	2953	42500	9350850
15	2953	42500	9350550
15	3119	45000	9332250
15	3119	45000	9332250
15	3119	45000	9331650
15	3289	47500	9313200
15	3289	47500	9313200
15	3289	47500	9312750
15	3459	50000	9294150
15	3459	50000	9293850
15	3461	50000	9293850
15	3461	50000	9293850
15	3461	50000	9293700
15	3471	50000	9293100
15	3471	50000	9292950
15	3575	51500	9281600
15	3575	51500	9281400
15	3609	52000	9228900
15	3609	52000	9228700
15	3643	52500	9182500
15	3643	52500	9182500
15	3643	52500	9176000
15	3781	54500	8966000
15	3781	54500	8965850
15	3815	55000	8962400
15	3815	55000	8962400
15	3815	55000	8961950
15	3985	57500	8943350
15	3985	57500	8943350
15	3985	57500	8943050
15	4151	60000	8924750
15	4151	60000	8924150
15	4153	60000	8924150
15	4153	60000	8924150
15	4153	60000	8924000
15	4163	60000	8923400
15	4163	60000	8923250
15	4335	62500	8904700
15	4335	62500	8904700
15	4335	62500	8904250
15	4469	64500	8889250
15	4469	64500	8889050
15	4507	65000	8838650
15	4507	65000	8838650
15	4507	65000	8836350
15	4509	65000	8836350
15	4509	65000	8836150
15	4675	67500	8579950
15	4675	67500	8579950
15	4675	67500	8573450
15	4677	67500	8573450
15	4677	67500	8573300
17	0	0	100
17	0	0	100
17	0	0	100
17	688	10000	100
17	688	10000	100
17	688	10000	100
17	1384	20000	100
17	1384	20000	100
17	1384	20000	100
17	2076	30000	100
17	2076	30000	100
17	2076	30000	100
17	2770	40000	100
17	2770	40000	100
17	2770	40000	100
17	3462	50000	100
17	3462	50000	100
17	3462	50000	100
17	4154	60000	100
17	4154	60000	100
17	4154	60000	100
18	0	0	3
18	176	2500	0.3
18	868	12500	3
18	904	13000	3
18	1076	15500	0.3
18	1764	25500	3
18	1802	26000	3
18	1970	28500	0.3
18	2662	38500	3
18	2696	39000	3
18	2882	41500	0.3
18	3574	51500	3
18	3608	52000	3
18	3780	54500	0.3
18	4468	64500	3
18	4508	65000	3
18	4676	67500	0.3
19	0	0	100
19	2	0	100
19	690	10000	100
19	1386	20000	100
19	2078	30000	100
19	2772	40000	100
19	3464	50000	100
19	4156	60000	100
20	0	0	3
20	176	2500	0.3
20	868	12500	3
20	904	13000	3
20	1076	15500	0.3
20	1764	25500	3
20	1802	26000	3
20	1970	28500	0.3
20	2662	38500	3
20	2696	39000	3
20	2882	41500	0.3
20	3574	51500	3
20	3608	52000	3
20	3780	54500	0.3
20	4468	64500	3
20	4508	65000	3
20	4676	67500	0.3
21	0	0	100
21	4	0	100
21	692	10000	100
21	1388	20000	100
21	2080	30000	100
21	2774	40000	100
21	3466	50000	100
21	4158	60000	100
22	0	0	3
22	176	2500	0.3
22	868	12500	3
22	904	13000	3
22	1076	15500	0.3
22	1764	25500	3
22	1802	26000	3
22	1970	28500	0.3
22	2662	38500	3
22	2696	39000	3
22	2882	41500	0.3
22	3574	51500	3
22	3608	52000	3
22	3780	54500	0.3
22	4468	64500	3
22	4508	65000	3
22	4676	67500	0.3
23	0	0	100
23	6	0	100
23	694	10000	100
23	1390	20000	100
23	2082	30000	100
23	2776	40000	100
23	3468	50000	100
23	4160	60000	100
24	0	0	3
24	176	2500	0.3
24	868	12500	3
24	904	13000	3
24	1076	15500	0.3
24	1764	25500	3
24	1802	26000	3
24	1970	28500	0.3
24	2662	38500	3
24	2696	39000	3
24	2882	41500	0.3
24	3574	51500	3
24	3608	52000	3
24	3780	54500	0.3
24	4468	64500	3
24	4508	65000	3
24	4676	67500	0.3
25	0	0	100
25	10	0	100
25	698	10000	100
25	1394	20000	100
25	2086	30000	100
25	2780	40000	100
25	3472	50000	100
25	4164	60000	100
26	0	0	3
26	176	2500	0.3
26	868	12500	3
26	904	13000	3
26	1076	15500	0.3
26	1764	25500	3
26	1802	26000	3
26	1970	28500	0.3
26	2662	38500	3
26	2696	39000	3
26	2882	41500	0.3
26	3574	51500	3
26	3608	52000	3
26	3780	54500	0.3
26	4468	64500	3
26	4508	65000	3
26	4676	67500	0.3
28	0	0	100
28	0	0	100
28	0	0	100
28	689	10000	100
28	689	10000	100
28	689	10000	100
28	1385	20000	100
28	1385	20000	100
28	1385	20000	100
28	2077	30000	100
28	2077	30000	100
28	2077	30000	100
28	2771	40000	100
28	2771	40000	100
28	2771	40000	100
28	3463	50000	100
28	3463	50000	100
28	3463	50000	100
28	4155	60000	100
28	4155	60000	100
28	4155	60000	100
29	0	0	3
29	178	2500	0.3
29	869	12500	3
29	905	13000	3
29	1077	15500	0.3
29	1765	25500	3
29	1803	26000	3
29	1971	28500	0.3
29	2663	38500	3
29	2697	39000	3
29	2883	41500	0.3
29	3575	51500	3
29	3609	52000	3
29	3781	54500	0.3
29	4469	64500	3
29	4509	65000	3
29	4677	67500	0.3
30	0	0	100
30	3	0	100
30	691	10000	100
30	1387	20000	100
30	2079	30000	100
30	2773	40000	100
30	3465	50000	100
30	4157	60000	100
31	0	0	3
31	178	2500	0.3
31	869	12500	3
31	905	13000	3
31	1077	15500	0.3
31	1765	25500	3
31	1803	26000	3
31	1971	28500	0.3
31	2663	38500	3
31	2697	39000	3
31	2883	41500	0.3
31	3575	51500	3
31	3609	52000	3
31	3781	54500	0.3
31	4469	64500	3
31	4509	65000	3
31	4677	67500	0.3
32	0	0	100
32	5	0	100
32	693	10000	100
32	1389	20000	100
32	2081	30000	100
32	2775	40000	100
32	3467	50000	100
32	4159	60000	100
33	0	0	3
33	178	2500	0.3
33	869	12500	3
33	905	13000	3
33	1077	15500	0.3
33	1765	25500	3
33	1803	26000	3
33	1971	28500	0.3
33	2663	38500	3
33	2697	39000	3
33	2883	41500	0.3
33	3575	51500	3
33	3609	52000	3
33	3781	54500	0.3
33	4469	64500	3
33	4509	65000	3
33	4677	67500	0.3
34	0	0	100
34	7	0	100
34	695	10000	100
34	1391	20000	100
34	2083	30000	100
34	2777	40000	100
34	3469	50000	100
34	4161	60000	100
35	0	0	3
35	178	2500	0.3
35	869	12500	3
35	905	13000	3
35	1077	15500	0.3
35	1765	25500	3
35	1803	26000	3
35	1971	28500	0.3
35	2663	38500	3
35	2697	39000	3
35	2883	41500	0.3
35	3575	51500	3
35	3609	52000	3
35	3781	54500	0.3
35	4469	64500	3
35	4509	65000	3
35	4677	67500	0.3
36	0	0	100
36	11	0	100
36	699	10000	100
36	1395	20000	100
36	2087	30000	100
36	2781	40000	100
36	3473	50000	100
36	4165	60000	100
37	0	0	3
37	178	2500	0.3
37	869	12500	3
37	905	13000	3
37	1077	15500	0.3
37	1765	25500	3
37	1803	26000	3
37	1971	28500	0.3
37	2663	38500	3
37	2697	39000	3
37	2883	41500	0.3
37	3575	51500	3
37	3609	52000	3
37	3781	54500	0.3
37	4469	64500	3
37	4509	65000	3
37	4677	67500	0.3
