version 2
run General-0-20150512-15:47:13-15326
attr configname General
attr datetime 20150512-15:47:13
attr experiment General
attr inifile omnetpp.ini
attr iterationvars ""
attr iterationvars2 $repetition=0
attr measurement ""
attr network SleepOutOfSync
attr processid 15326
attr repetition 0
attr replication #0
attr resultdir results
attr runnumber 0
attr seedset 0

vector 3  SleepOutOfSync.TPNode1[0].Processor  "power mode"  ETV
vector 4  SleepOutOfSync.TPNode1[0].Processor  Voltage  ETV
vector 5  SleepOutOfSync.TPNode1[0].Processor  residualRelative  ETV
vector 6  SleepOutOfSync.TPNode1[0].Processor  residualAbs  ETV
vector 10  SleepOutOfSync.TPNode2[0].Processor  "power mode"  ETV
vector 11  SleepOutOfSync.TPNode2[0].Processor  Voltage  ETV
vector 12  SleepOutOfSync.TPNode2[0].Processor  residualRelative  ETV
vector 13  SleepOutOfSync.TPNode2[0].Processor  residualAbs  ETV
3	0	0	0
3	0	0	0
3	356	5000	1
3	696	10000	2
3	704	10000	0
3	704	10000	0
3	1060	15000	1
3	1404	20000	2
3	1412	20000	0
3	1412	20000	0
3	1768	25000	1
3	2108	30000	2
3	2116	30000	0
3	2116	30000	0
3	2476	35000	1
3	2816	40000	2
3	2824	40000	0
3	2824	40000	0
3	3180	45000	1
3	3524	50000	2
3	3532	50000	0
3	3532	50000	0
3	3888	55000	1
3	4228	60000	2
3	4236	60000	0
3	4236	60000	0
3	4596	65000	1
3	4936	70000	2
3	4944	70000	0
3	4944	70000	0
3	5300	75000	1
3	5644	80000	2
3	5652	80000	0
3	5652	80000	0
3	6008	85000	1
3	6348	90000	2
3	6356	90000	0
3	6356	90000	0
3	6716	95000	1
3	7056	100000	2
3	7064	100000	0
3	7064	100000	0
3	7420	105000	1
3	7764	110000	2
3	7772	110000	0
3	7772	110000	0
3	8128	115000	1
3	8468	120000	2
3	8476	120000	0
3	8476	120000	0
3	8836	125000	1
3	9176	130000	2
3	9184	130000	0
3	9184	130000	0
3	9540	135000	1
3	9884	140000	2
3	9892	140000	0
3	9892	140000	0
4	0	0	3
4	14	0	3
4	14	0	3
4	15	0	3
4	15	0	3
4	186	2500	3
4	186	2500	3
4	186	2500	3
4	356	5000	3
4	356	5000	3
4	358	5000	3
4	358	5000	3
4	358	5000	3
4	524	7500	3
4	524	7500	3
4	524	7500	3
4	694	10000	3
4	694	10000	3
4	696	10000	3
4	696	10000	3
4	698	10000	3
4	698	10000	3
4	698	10000	3
4	704	10000	3
4	704	10000	3
4	718	10000	3
4	718	10000	3
4	719	10000	3
4	719	10000	3
4	894	12500	3
4	894	12500	3
4	894	12500	3
4	1060	15000	3
4	1060	15000	3
4	1062	15000	3
4	1062	15000	3
4	1062	15000	3
4	1232	17500	3
4	1232	17500	3
4	1232	17500	3
4	1402	20000	3
4	1402	20000	3
4	1404	20000	3
4	1404	20000	3
4	1406	20000	3
4	1406	20000	3
4	1406	20000	3
4	1412	20000	3
4	1412	20000	3
4	1426	20000	3
4	1426	20000	3
4	1427	20000	3
4	1427	20000	3
4	1598	22500	3
4	1598	22500	3
4	1598	22500	3
4	1768	25000	3
4	1768	25000	3
4	1770	25000	3
4	1770	25000	3
4	1770	25000	3
4	1940	27500	3
4	1940	27500	3
4	1940	27500	3
4	2106	30000	3
4	2106	30000	3
4	2108	30000	3
4	2108	30000	3
4	2110	30000	3
4	2110	30000	3
4	2110	30000	3
4	2116	30000	3
4	2116	30000	3
4	2130	30000	3
4	2130	30000	3
4	2131	30000	3
4	2131	30000	3
4	2306	32500	3
4	2306	32500	3
4	2306	32500	3
4	2476	35000	3
4	2476	35000	3
4	2478	35000	3
4	2478	35000	3
4	2478	35000	3
4	2644	37500	3
4	2644	37500	3
4	2644	37500	3
4	2814	40000	3
4	2814	40000	3
4	2816	40000	3
4	2816	40000	3
4	2818	40000	3
4	2818	40000	3
4	2818	40000	3
4	2824	40000	3
4	2824	40000	3
4	2838	40000	3
4	2838	40000	3
4	2839	40000	3
4	2839	40000	3
4	3014	42500	3
4	3014	42500	3
4	3014	42500	3
4	3180	45000	3
4	3180	45000	3
4	3182	45000	3
4	3182	45000	3
4	3182	45000	3
4	3352	47500	3
4	3352	47500	3
4	3352	47500	3
4	3522	50000	3
4	3522	50000	3
4	3524	50000	3
4	3524	50000	3
4	3526	50000	3
4	3526	50000	3
4	3526	50000	3
4	3532	50000	3
4	3532	50000	3
4	3546	50000	3
4	3546	50000	3
4	3547	50000	3
4	3547	50000	3
4	3718	52500	3
4	3718	52500	3
4	3718	52500	3
4	3888	55000	3
4	3888	55000	3
4	3890	55000	3
4	3890	55000	3
4	3890	55000	3
4	4060	57500	3
4	4060	57500	3
4	4060	57500	3
4	4226	60000	3
4	4226	60000	3
4	4228	60000	3
4	4228	60000	3
4	4230	60000	3
4	4230	60000	3
4	4230	60000	3
4	4236	60000	3
4	4236	60000	3
4	4250	60000	3
4	4250	60000	3
4	4251	60000	3
4	4251	60000	3
4	4426	62500	3
4	4426	62500	3
4	4426	62500	3
4	4596	65000	3
4	4596	65000	3
4	4598	65000	3
4	4598	65000	3
4	4598	65000	3
4	4764	67500	3
4	4764	67500	3
4	4764	67500	3
4	4934	70000	3
4	4934	70000	3
4	4936	70000	3
4	4936	70000	3
4	4938	70000	3
4	4938	70000	3
4	4938	70000	3
4	4944	70000	3
4	4944	70000	3
4	4958	70000	3
4	4958	70000	3
4	4959	70000	3
4	4959	70000	3
4	5134	72500	3
4	5134	72500	3
4	5134	72500	3
4	5300	75000	3
4	5300	75000	3
4	5302	75000	3
4	5302	75000	3
4	5302	75000	3
4	5472	77500	3
4	5472	77500	3
4	5472	77500	3
4	5642	80000	3
4	5642	80000	3
4	5644	80000	3
4	5644	80000	3
4	5646	80000	3
4	5646	80000	3
4	5646	80000	3
4	5652	80000	3
4	5652	80000	3
4	5666	80000	3
4	5666	80000	3
4	5667	80000	3
4	5667	80000	3
4	5838	82500	3
4	5838	82500	3
4	5838	82500	3
4	6008	85000	3
4	6008	85000	3
4	6010	85000	3
4	6010	85000	3
4	6010	85000	3
4	6180	87500	3
4	6180	87500	3
4	6180	87500	3
4	6346	90000	3
4	6346	90000	3
4	6348	90000	3
4	6348	90000	3
4	6350	90000	3
4	6350	90000	3
4	6350	90000	3
4	6356	90000	3
4	6356	90000	3
4	6370	90000	3
4	6370	90000	3
4	6371	90000	3
4	6371	90000	3
4	6546	92500	3
4	6546	92500	3
4	6546	92500	3
4	6716	95000	3
4	6716	95000	3
4	6718	95000	3
4	6718	95000	3
4	6718	95000	3
4	6884	97500	3
4	6884	97500	3
4	6884	97500	3
4	7054	100000	3
4	7054	100000	3
4	7056	100000	3
4	7056	100000	3
4	7058	100000	3
4	7058	100000	3
4	7058	100000	3
4	7064	100000	3
4	7064	100000	3
4	7078	100000	3
4	7078	100000	3
4	7079	100000	3
4	7079	100000	3
4	7254	102500	3
4	7254	102500	3
4	7254	102500	3
4	7420	105000	3
4	7420	105000	3
4	7422	105000	3
4	7422	105000	3
4	7422	105000	3
4	7592	107500	3
4	7592	107500	3
4	7592	107500	3
4	7762	110000	3
4	7762	110000	3
4	7764	110000	3
4	7764	110000	3
4	7766	110000	3
4	7766	110000	3
4	7766	110000	3
4	7772	110000	3
4	7772	110000	3
4	7786	110000	3
4	7786	110000	3
4	7787	110000	3
4	7787	110000	3
4	7958	112500	3
4	7958	112500	3
4	7958	112500	3
4	8128	115000	3
4	8128	115000	3
4	8130	115000	3
4	8130	115000	3
4	8130	115000	3
4	8300	117500	3
4	8300	117500	3
4	8300	117500	3
4	8466	120000	3
4	8466	120000	3
4	8468	120000	3
4	8468	120000	3
4	8470	120000	3
4	8470	120000	3
4	8470	120000	3
4	8476	120000	3
4	8476	120000	3
4	8490	120000	3
4	8490	120000	3
4	8491	120000	3
4	8491	120000	3
4	8666	122500	3
4	8666	122500	3
4	8666	122500	3
4	8836	125000	3
4	8836	125000	3
4	8838	125000	3
4	8838	125000	3
4	8838	125000	3
4	9004	127500	3
4	9004	127500	3
4	9004	127500	3
4	9174	130000	3
4	9174	130000	3
4	9176	130000	3
4	9176	130000	3
4	9178	130000	3
4	9178	130000	3
4	9178	130000	3
4	9184	130000	3
4	9184	130000	3
4	9198	130000	3
4	9198	130000	3
4	9199	130000	3
4	9199	130000	3
4	9374	132500	3
4	9374	132500	3
4	9374	132500	3
4	9540	135000	3
4	9540	135000	3
4	9542	135000	3
4	9542	135000	3
4	9542	135000	3
4	9712	137500	3
4	9712	137500	3
4	9712	137500	3
4	9882	140000	3
4	9882	140000	3
4	9884	140000	3
4	9884	140000	3
4	9886	140000	3
4	9886	140000	3
4	9886	140000	3
4	9892	140000	3
4	9892	140000	3
4	9906	140000	3
4	9906	140000	3
4	9907	140000	3
4	9907	140000	3
5	0	0	1
5	14	0	0.99990740740741
5	14	0	0.99988888888889
5	15	0	0.99988888888889
5	15	0	0.99987037037037
5	186	2500	0.96773518518519
5	186	2500	0.96773518518519
5	186	2500	0.96719444444444
5	356	5000	0.93455555555556
5	356	5000	0.93454166666667
5	358	5000	0.93454166666667
5	358	5000	0.93454166666667
5	358	5000	0.93452777777778
5	524	7500	0.93202
5	524	7500	0.93202
5	524	7500	0.93194444444444
5	694	10000	0.92941611111111
5	694	10000	0.92936111111111
5	696	10000	0.92936111111111
5	696	10000	0.92934259259259
5	698	10000	0.92934259259259
5	698	10000	0.92934259259259
5	698	10000	0.92932407407407
5	704	10000	0.92926851851852
5	704	10000	0.92925
5	718	10000	0.92919444444444
5	718	10000	0.92917592592593
5	719	10000	0.92917592592593
5	719	10000	0.92915740740741
5	894	12500	0.89676111111111
5	894	12500	0.89676111111111
5	894	12500	0.89648148148148
5	1060	15000	0.86384259259259
5	1060	15000	0.8638287037037
5	1062	15000	0.8638287037037
5	1062	15000	0.8638287037037
5	1062	15000	0.86381481481481
5	1232	17500	0.86128648148148
5	1232	17500	0.86128648148148
5	1232	17500	0.86123148148148
5	1402	20000	0.85868259259259
5	1402	20000	0.85864814814815
5	1404	20000	0.85864814814815
5	1404	20000	0.85862962962963
5	1406	20000	0.85862962962963
5	1406	20000	0.85862962962963
5	1406	20000	0.85861111111111
5	1412	20000	0.85855555555556
5	1412	20000	0.85853703703704
5	1426	20000	0.85848148148148
5	1426	20000	0.85846296296296
5	1427	20000	0.85846296296296
5	1427	20000	0.85844444444444
5	1598	22500	0.82657037037037
5	1598	22500	0.82657037037037
5	1598	22500	0.82576851851852
5	1768	25000	0.79312962962963
5	1768	25000	0.79311574074074
5	1770	25000	0.79311574074074
5	1770	25000	0.79311574074074
5	1770	25000	0.79310185185185
5	1940	27500	0.79055296296296
5	1940	27500	0.79055296296296
5	1940	27500	0.79051851851852
5	2106	30000	0.78801074074074
5	2106	30000	0.78793518518519
5	2108	30000	0.78793518518519
5	2108	30000	0.78791666666667
5	2110	30000	0.78791666666667
5	2110	30000	0.78791666666667
5	2110	30000	0.78789814814815
5	2116	30000	0.78784259259259
5	2116	30000	0.78782407407407
5	2130	30000	0.78776851851852
5	2130	30000	0.78775
5	2131	30000	0.78775
5	2131	30000	0.78773148148148
5	2306	32500	0.7555962962963
5	2306	32500	0.7555962962963
5	2306	32500	0.75505555555556
5	2476	35000	0.72241666666667
5	2476	35000	0.72240277777778
5	2478	35000	0.72240277777778
5	2478	35000	0.72240277777778
5	2478	35000	0.72238888888889
5	2644	37500	0.71988111111111
5	2644	37500	0.71988111111111
5	2644	37500	0.71980555555556
5	2814	40000	0.71727722222222
5	2814	40000	0.71722222222222
5	2816	40000	0.71722222222222
5	2816	40000	0.7172037037037
5	2818	40000	0.7172037037037
5	2818	40000	0.7172037037037
5	2818	40000	0.71718518518519
5	2824	40000	0.71712962962963
5	2824	40000	0.71711111111111
5	2838	40000	0.71705555555556
5	2838	40000	0.71703703703704
5	2839	40000	0.71703703703704
5	2839	40000	0.71701851851852
5	3014	42500	0.68462222222222
5	3014	42500	0.68462222222222
5	3014	42500	0.68434259259259
5	3180	45000	0.6517037037037
5	3180	45000	0.65168981481481
5	3182	45000	0.65168981481481
5	3182	45000	0.65168981481481
5	3182	45000	0.65167592592593
5	3352	47500	0.64914759259259
5	3352	47500	0.64914759259259
5	3352	47500	0.64909259259259
5	3522	50000	0.6465437037037
5	3522	50000	0.64650925925926
5	3524	50000	0.64650925925926
5	3524	50000	0.64649074074074
5	3526	50000	0.64649074074074
5	3526	50000	0.64649074074074
5	3526	50000	0.64647222222222
5	3532	50000	0.64641666666667
5	3532	50000	0.64639814814815
5	3546	50000	0.64634259259259
5	3546	50000	0.64632407407407
5	3547	50000	0.64632407407407
5	3547	50000	0.64630555555556
5	3718	52500	0.61443148148148
5	3718	52500	0.61443148148148
5	3718	52500	0.61362962962963
5	3888	55000	0.58099074074074
5	3888	55000	0.58097685185185
5	3890	55000	0.58097685185185
5	3890	55000	0.58097685185185
5	3890	55000	0.58096296296296
5	4060	57500	0.57841407407407
5	4060	57500	0.57841407407407
5	4060	57500	0.57837962962963
5	4226	60000	0.57587185185185
5	4226	60000	0.5757962962963
5	4228	60000	0.5757962962963
5	4228	60000	0.57577777777778
5	4230	60000	0.57577777777778
5	4230	60000	0.57577777777778
5	4230	60000	0.57575925925926
5	4236	60000	0.5757037037037
5	4236	60000	0.57568518518519
5	4250	60000	0.57562962962963
5	4250	60000	0.57561111111111
5	4251	60000	0.57561111111111
5	4251	60000	0.57559259259259
5	4426	62500	0.54345740740741
5	4426	62500	0.54345740740741
5	4426	62500	0.54291666666667
5	4596	65000	0.51027777777778
5	4596	65000	0.51026388888889
5	4598	65000	0.51026388888889
5	4598	65000	0.51026388888889
5	4598	65000	0.51025
5	4764	67500	0.50774222222222
5	4764	67500	0.50774222222222
5	4764	67500	0.50766666666667
5	4934	70000	0.50513833333333
5	4934	70000	0.50508333333333
5	4936	70000	0.50508333333333
5	4936	70000	0.50506481481481
5	4938	70000	0.50506481481481
5	4938	70000	0.50506481481481
5	4938	70000	0.5050462962963
5	4944	70000	0.50499074074074
5	4944	70000	0.50497222222222
5	4958	70000	0.50491666666667
5	4958	70000	0.50489814814815
5	4959	70000	0.50489814814815
5	4959	70000	0.50487962962963
5	5134	72500	0.47248333333333
5	5134	72500	0.47248333333333
5	5134	72500	0.4722037037037
5	5300	75000	0.43956481481481
5	5300	75000	0.43955092592593
5	5302	75000	0.43955092592593
5	5302	75000	0.43955092592593
5	5302	75000	0.43953703703704
5	5472	77500	0.4370087037037
5	5472	77500	0.4370087037037
5	5472	77500	0.4369537037037
5	5642	80000	0.43440481481481
5	5642	80000	0.43437037037037
5	5644	80000	0.43437037037037
5	5644	80000	0.43435185185185
5	5646	80000	0.43435185185185
5	5646	80000	0.43435185185185
5	5646	80000	0.43433333333333
5	5652	80000	0.43427777777778
5	5652	80000	0.43425925925926
5	5666	80000	0.4342037037037
5	5666	80000	0.43418518518519
5	5667	80000	0.43418518518519
5	5667	80000	0.43416666666667
5	5838	82500	0.40229259259259
5	5838	82500	0.40229259259259
5	5838	82500	0.40149074074074
5	6008	85000	0.36885185185185
5	6008	85000	0.36883796296296
5	6010	85000	0.36883796296296
5	6010	85000	0.36883796296296
5	6010	85000	0.36882407407407
5	6180	87500	0.36627518518519
5	6180	87500	0.36627518518519
5	6180	87500	0.36624074074074
5	6346	90000	0.36373296296296
5	6346	90000	0.36365740740741
5	6348	90000	0.36365740740741
5	6348	90000	0.36363888888889
5	6350	90000	0.36363888888889
5	6350	90000	0.36363888888889
5	6350	90000	0.36362037037037
5	6356	90000	0.36356481481481
5	6356	90000	0.3635462962963
5	6370	90000	0.36349074074074
5	6370	90000	0.36347222222222
5	6371	90000	0.36347222222222
5	6371	90000	0.3634537037037
5	6546	92500	0.33131851851852
5	6546	92500	0.33131851851852
5	6546	92500	0.33077777777778
5	6716	95000	0.29813888888889
5	6716	95000	0.298125
5	6718	95000	0.298125
5	6718	95000	0.298125
5	6718	95000	0.29811111111111
5	6884	97500	0.29560333333333
5	6884	97500	0.29560333333333
5	6884	97500	0.29552777777778
5	7054	100000	0.29299944444444
5	7054	100000	0.29294444444444
5	7056	100000	0.29294444444444
5	7056	100000	0.29292592592593
5	7058	100000	0.29292592592593
5	7058	100000	0.29292592592593
5	7058	100000	0.29290740740741
5	7064	100000	0.29285185185185
5	7064	100000	0.29283333333333
5	7078	100000	0.29277777777778
5	7078	100000	0.29275925925926
5	7079	100000	0.29275925925926
5	7079	100000	0.29274074074074
5	7254	102500	0.26034444444444
5	7254	102500	0.26034444444444
5	7254	102500	0.26006481481481
5	7420	105000	0.22742592592593
5	7420	105000	0.22741203703704
5	7422	105000	0.22741203703704
5	7422	105000	0.22741203703704
5	7422	105000	0.22739814814815
5	7592	107500	0.22486981481481
5	7592	107500	0.22486981481481
5	7592	107500	0.22481481481481
5	7762	110000	0.22226592592593
5	7762	110000	0.22223148148148
5	7764	110000	0.22223148148148
5	7764	110000	0.22221296296296
5	7766	110000	0.22221296296296
5	7766	110000	0.22221296296296
5	7766	110000	0.22219444444444
5	7772	110000	0.22213888888889
5	7772	110000	0.22212037037037
5	7786	110000	0.22206481481481
5	7786	110000	0.2220462962963
5	7787	110000	0.2220462962963
5	7787	110000	0.22202777777778
5	7958	112500	0.1901537037037
5	7958	112500	0.1901537037037
5	7958	112500	0.18935185185185
5	8128	115000	0.15671296296296
5	8128	115000	0.15669907407407
5	8130	115000	0.15669907407407
5	8130	115000	0.15669907407407
5	8130	115000	0.15668518518519
5	8300	117500	0.1541362962963
5	8300	117500	0.1541362962963
5	8300	117500	0.15410185185185
5	8466	120000	0.15159407407407
5	8466	120000	0.15151851851852
5	8468	120000	0.15151851851852
5	8468	120000	0.1515
5	8470	120000	0.1515
5	8470	120000	0.1515
5	8470	120000	0.15148148148148
5	8476	120000	0.15142592592593
5	8476	120000	0.15140740740741
5	8490	120000	0.15135185185185
5	8490	120000	0.15133333333333
5	8491	120000	0.15133333333333
5	8491	120000	0.15131481481481
5	8666	122500	0.11917962962963
5	8666	122500	0.11917962962963
5	8666	122500	0.11863888888889
5	8836	125000	0.086
5	8836	125000	0.085986111111111
5	8838	125000	0.085986111111111
5	8838	125000	0.085986111111111
5	8838	125000	0.085972222222222
5	9004	127500	0.083464444444444
5	9004	127500	0.083464444444444
5	9004	127500	0.083388888888889
5	9174	130000	0.080860555555556
5	9174	130000	0.080805555555556
5	9176	130000	0.080805555555556
5	9176	130000	0.080787037037037
5	9178	130000	0.080787037037037
5	9178	130000	0.080787037037037
5	9178	130000	0.080768518518519
5	9184	130000	0.080712962962963
5	9184	130000	0.080694444444444
5	9198	130000	0.080638888888889
5	9198	130000	0.08062037037037
5	9199	130000	0.08062037037037
5	9199	130000	0.080601851851852
5	9374	132500	0.048205555555556
5	9374	132500	0.048205555555556
5	9374	132500	0.047925925925926
5	9540	135000	0.015287037037037
5	9540	135000	0.015273148148148
5	9542	135000	0.015273148148148
5	9542	135000	0.015273148148148
5	9542	135000	0.015259259259259
5	9712	137500	0.012730925925926
5	9712	137500	0.012730925925926
5	9712	137500	0.012675925925926
5	9882	140000	0.010127037037037
5	9882	140000	0.010092592592593
5	9884	140000	0.010092592592593
5	9884	140000	0.010074074074074
5	9886	140000	0.010074074074074
5	9886	140000	0.010074074074074
5	9886	140000	0.010055555555556
5	9892	140000	0.01
5	9892	140000	0.0099814814814815
5	9906	140000	0.0099259259259259
5	9906	140000	0.0099074074074074
5	9907	140000	0.0099074074074074
5	9907	140000	0.0098888888888889
6	0	0	10800000
6	14	0	10799000
6	14	0	10798800
6	15	0	10798800
6	15	0	10798600
6	186	2500	10451540
6	186	2500	10451540
6	186	2500	10445700
6	356	5000	10093200
6	356	5000	10093050
6	358	5000	10093050
6	358	5000	10093050
6	358	5000	10092900
6	524	7500	10065816
6	524	7500	10065816
6	524	7500	10065000
6	694	10000	10037694
6	694	10000	10037100
6	696	10000	10037100
6	696	10000	10036900
6	698	10000	10036900
6	698	10000	10036900
6	698	10000	10036700
6	704	10000	10036100
6	704	10000	10035900
6	718	10000	10035300
6	718	10000	10035100
6	719	10000	10035100
6	719	10000	10034900
6	894	12500	9685020
6	894	12500	9685020
6	894	12500	9682000
6	1060	15000	9329500
6	1060	15000	9329350
6	1062	15000	9329350
6	1062	15000	9329350
6	1062	15000	9329200
6	1232	17500	9301894
6	1232	17500	9301894
6	1232	17500	9301300
6	1402	20000	9273772
6	1402	20000	9273400
6	1404	20000	9273400
6	1404	20000	9273200
6	1406	20000	9273200
6	1406	20000	9273200
6	1406	20000	9273000
6	1412	20000	9272400
6	1412	20000	9272200
6	1426	20000	9271600
6	1426	20000	9271400
6	1427	20000	9271400
6	1427	20000	9271200
6	1598	22500	8926960
6	1598	22500	8926960
6	1598	22500	8918300
6	1768	25000	8565800
6	1768	25000	8565650
6	1770	25000	8565650
6	1770	25000	8565650
6	1770	25000	8565500
6	1940	27500	8537972
6	1940	27500	8537972
6	1940	27500	8537600
6	2106	30000	8510516
6	2106	30000	8509700
6	2108	30000	8509700
6	2108	30000	8509500
6	2110	30000	8509500
6	2110	30000	8509500
6	2110	30000	8509300
6	2116	30000	8508700
6	2116	30000	8508500
6	2130	30000	8507900
6	2130	30000	8507700
6	2131	30000	8507700
6	2131	30000	8507500
6	2306	32500	8160440
6	2306	32500	8160440
6	2306	32500	8154600
6	2476	35000	7802100
6	2476	35000	7801950
6	2478	35000	7801950
6	2478	35000	7801950
6	2478	35000	7801800
6	2644	37500	7774716
6	2644	37500	7774716
6	2644	37500	7773900
6	2814	40000	7746594
6	2814	40000	7746000
6	2816	40000	7746000
6	2816	40000	7745800
6	2818	40000	7745800
6	2818	40000	7745800
6	2818	40000	7745600
6	2824	40000	7745000
6	2824	40000	7744800
6	2838	40000	7744200
6	2838	40000	7744000
6	2839	40000	7744000
6	2839	40000	7743800
6	3014	42500	7393920
6	3014	42500	7393920
6	3014	42500	7390900
6	3180	45000	7038400
6	3180	45000	7038250
6	3182	45000	7038250
6	3182	45000	7038250
6	3182	45000	7038100
6	3352	47500	7010794
6	3352	47500	7010794
6	3352	47500	7010200
6	3522	50000	6982672
6	3522	50000	6982300
6	3524	50000	6982300
6	3524	50000	6982100
6	3526	50000	6982100
6	3526	50000	6982100
6	3526	50000	6981900
6	3532	50000	6981300
6	3532	50000	6981100
6	3546	50000	6980500
6	3546	50000	6980300
6	3547	50000	6980300
6	3547	50000	6980100
6	3718	52500	6635860
6	3718	52500	6635860
6	3718	52500	6627200
6	3888	55000	6274700
6	3888	55000	6274550
6	3890	55000	6274550
6	3890	55000	6274550
6	3890	55000	6274400
6	4060	57500	6246872
6	4060	57500	6246872
6	4060	57500	6246500
6	4226	60000	6219416
6	4226	60000	6218600
6	4228	60000	6218600
6	4228	60000	6218400
6	4230	60000	6218400
6	4230	60000	6218400
6	4230	60000	6218200
6	4236	60000	6217600
6	4236	60000	6217400
6	4250	60000	6216800
6	4250	60000	6216600
6	4251	60000	6216600
6	4251	60000	6216400
6	4426	62500	5869340
6	4426	62500	5869340
6	4426	62500	5863500
6	4596	65000	5511000
6	4596	65000	5510850
6	4598	65000	5510850
6	4598	65000	5510850
6	4598	65000	5510700
6	4764	67500	5483616
6	4764	67500	5483616
6	4764	67500	5482800
6	4934	70000	5455494
6	4934	70000	5454900
6	4936	70000	5454900
6	4936	70000	5454700
6	4938	70000	5454700
6	4938	70000	5454700
6	4938	70000	5454500
6	4944	70000	5453900
6	4944	70000	5453700
6	4958	70000	5453100
6	4958	70000	5452900
6	4959	70000	5452900
6	4959	70000	5452700
6	5134	72500	5102820
6	5134	72500	5102820
6	5134	72500	5099800
6	5300	75000	4747300
6	5300	75000	4747150
6	5302	75000	4747150
6	5302	75000	4747150
6	5302	75000	4747000
6	5472	77500	4719694
6	5472	77500	4719694
6	5472	77500	4719100
6	5642	80000	4691572
6	5642	80000	4691200
6	5644	80000	4691200
6	5644	80000	4691000
6	5646	80000	4691000
6	5646	80000	4691000
6	5646	80000	4690800
6	5652	80000	4690200
6	5652	80000	4690000
6	5666	80000	4689400
6	5666	80000	4689200
6	5667	80000	4689200
6	5667	80000	4689000
6	5838	82500	4344760
6	5838	82500	4344760
6	5838	82500	4336100
6	6008	85000	3983600
6	6008	85000	3983450
6	6010	85000	3983450
6	6010	85000	3983450
6	6010	85000	3983300
6	6180	87500	3955772
6	6180	87500	3955772
6	6180	87500	3955400
6	6346	90000	3928316
6	6346	90000	3927500
6	6348	90000	3927500
6	6348	90000	3927300
6	6350	90000	3927300
6	6350	90000	3927300
6	6350	90000	3927100
6	6356	90000	3926500
6	6356	90000	3926300
6	6370	90000	3925700
6	6370	90000	3925500
6	6371	90000	3925500
6	6371	90000	3925300
6	6546	92500	3578240
6	6546	92500	3578240
6	6546	92500	3572400
6	6716	95000	3219900
6	6716	95000	3219750
6	6718	95000	3219750
6	6718	95000	3219750
6	6718	95000	3219600
6	6884	97500	3192516
6	6884	97500	3192516
6	6884	97500	3191700
6	7054	100000	3164394
6	7054	100000	3163800
6	7056	100000	3163800
6	7056	100000	3163600
6	7058	100000	3163600
6	7058	100000	3163600
6	7058	100000	3163400
6	7064	100000	3162800
6	7064	100000	3162600
6	7078	100000	3162000
6	7078	100000	3161800
6	7079	100000	3161800
6	7079	100000	3161600
6	7254	102500	2811720
6	7254	102500	2811720
6	7254	102500	2808700
6	7420	105000	2456200
6	7420	105000	2456050
6	7422	105000	2456050
6	7422	105000	2456050
6	7422	105000	2455900
6	7592	107500	2428594
6	7592	107500	2428594
6	7592	107500	2428000
6	7762	110000	2400472
6	7762	110000	2400100
6	7764	110000	2400100
6	7764	110000	2399900
6	7766	110000	2399900
6	7766	110000	2399900
6	7766	110000	2399700
6	7772	110000	2399100
6	7772	110000	2398900
6	7786	110000	2398300
6	7786	110000	2398100
6	7787	110000	2398100
6	7787	110000	2397900
6	7958	112500	2053660
6	7958	112500	2053660
6	7958	112500	2045000
6	8128	115000	1692500
6	8128	115000	1692350
6	8130	115000	1692350
6	8130	115000	1692350
6	8130	115000	1692200
6	8300	117500	1664672
6	8300	117500	1664672
6	8300	117500	1664300
6	8466	120000	1637216
6	8466	120000	1636400
6	8468	120000	1636400
6	8468	120000	1636200
6	8470	120000	1636200
6	8470	120000	1636200
6	8470	120000	1636000
6	8476	120000	1635400
6	8476	120000	1635200
6	8490	120000	1634600
6	8490	120000	1634400
6	8491	120000	1634400
6	8491	120000	1634200
6	8666	122500	1287140
6	8666	122500	1287140
6	8666	122500	1281300
6	8836	125000	928800
6	8836	125000	928650
6	8838	125000	928650
6	8838	125000	928650
6	8838	125000	928500
6	9004	127500	901416
6	9004	127500	901416
6	9004	127500	900600
6	9174	130000	873294
6	9174	130000	872700
6	9176	130000	872700
6	9176	130000	872500
6	9178	130000	872500
6	9178	130000	872500
6	9178	130000	872300
6	9184	130000	871700
6	9184	130000	871500
6	9198	130000	870900
6	9198	130000	870700
6	9199	130000	870700
6	9199	130000	870500
6	9374	132500	520620
6	9374	132500	520620
6	9374	132500	517600
6	9540	135000	165100
6	9540	135000	164950
6	9542	135000	164950
6	9542	135000	164950
6	9542	135000	164800
6	9712	137500	137494
6	9712	137500	137494
6	9712	137500	136900
6	9882	140000	109372
6	9882	140000	109000
6	9884	140000	109000
6	9884	140000	108800
6	9886	140000	108800
6	9886	140000	108800
6	9886	140000	108600
6	9892	140000	108000
6	9892	140000	107800
6	9906	140000	107200
6	9906	140000	107000
6	9907	140000	107000
6	9907	140000	106800
10	0	0	0
10	0	0	0
10	5	0	1
10	357	5000	2
10	697	10000	0
10	697	10000	0
10	705	10000	1
10	1061	15000	2
10	1405	20000	0
10	1405	20000	0
10	1413	20000	1
10	1769	25000	2
10	2109	30000	0
10	2109	30000	0
10	2117	30000	1
10	2477	35000	2
10	2817	40000	0
10	2817	40000	0
10	2825	40000	1
10	3181	45000	2
10	3525	50000	0
10	3525	50000	0
10	3533	50000	1
10	3889	55000	2
10	4229	60000	0
10	4229	60000	0
10	4237	60000	1
10	4597	65000	2
10	4937	70000	0
10	4937	70000	0
10	4945	70000	1
10	5301	75000	2
10	5645	80000	0
10	5645	80000	0
10	5653	80000	1
10	6009	85000	2
10	6349	90000	0
10	6349	90000	0
10	6357	90000	1
10	6717	95000	2
10	7057	100000	0
10	7057	100000	0
10	7065	100000	1
10	7421	105000	2
10	7765	110000	0
10	7765	110000	0
10	7773	110000	1
10	8129	115000	2
10	8469	120000	0
10	8469	120000	0
10	8477	120000	1
10	8837	125000	2
10	9177	130000	0
10	9177	130000	0
10	9185	130000	1
10	9541	135000	2
10	9885	140000	0
10	9885	140000	0
10	9893	140000	1
10	10177	145000	2
11	0	0	3
11	5	0	3
11	5	0	3
11	16	0	3
11	16	0	3
11	17	0	3
11	17	0	3
11	187	2500	3
11	187	2500	3
11	187	2500	3
11	357	5000	3
11	357	5000	3
11	359	5000	3
11	359	5000	3
11	359	5000	3
11	525	7500	3
11	525	7500	3
11	525	7500	3
11	695	10000	3
11	695	10000	3
11	697	10000	3
11	697	10000	3
11	699	10000	3
11	699	10000	3
11	699	10000	3
11	705	10000	3
11	705	10000	3
11	720	10000	3
11	720	10000	3
11	721	10000	3
11	721	10000	3
11	895	12500	3
11	895	12500	3
11	895	12500	3
11	1061	15000	3
11	1061	15000	3
11	1063	15000	3
11	1063	15000	3
11	1063	15000	3
11	1233	17500	3
11	1233	17500	3
11	1233	17500	3
11	1403	20000	3
11	1403	20000	3
11	1405	20000	3
11	1405	20000	3
11	1407	20000	3
11	1407	20000	3
11	1407	20000	3
11	1413	20000	3
11	1413	20000	3
11	1428	20000	3
11	1428	20000	3
11	1429	20000	3
11	1429	20000	3
11	1599	22500	3
11	1599	22500	3
11	1599	22500	3
11	1769	25000	3
11	1769	25000	3
11	1771	25000	3
11	1771	25000	3
11	1771	25000	3
11	1941	27500	3
11	1941	27500	3
11	1941	27500	3
11	2107	30000	3
11	2107	30000	3
11	2109	30000	3
11	2109	30000	3
11	2111	30000	3
11	2111	30000	3
11	2111	30000	3
11	2117	30000	3
11	2117	30000	3
11	2132	30000	3
11	2132	30000	3
11	2133	30000	3
11	2133	30000	3
11	2307	32500	3
11	2307	32500	3
11	2307	32500	3
11	2477	35000	3
11	2477	35000	3
11	2479	35000	3
11	2479	35000	3
11	2479	35000	3
11	2645	37500	3
11	2645	37500	3
11	2645	37500	3
11	2815	40000	3
11	2815	40000	3
11	2817	40000	3
11	2817	40000	3
11	2819	40000	3
11	2819	40000	3
11	2819	40000	3
11	2825	40000	3
11	2825	40000	3
11	2840	40000	3
11	2840	40000	3
11	2841	40000	3
11	2841	40000	3
11	3015	42500	3
11	3015	42500	3
11	3015	42500	3
11	3181	45000	3
11	3181	45000	3
11	3183	45000	3
11	3183	45000	3
11	3183	45000	3
11	3353	47500	3
11	3353	47500	3
11	3353	47500	3
11	3523	50000	3
11	3523	50000	3
11	3525	50000	3
11	3525	50000	3
11	3527	50000	3
11	3527	50000	3
11	3527	50000	3
11	3533	50000	3
11	3533	50000	3
11	3548	50000	3
11	3548	50000	3
11	3549	50000	3
11	3549	50000	3
11	3719	52500	3
11	3719	52500	3
11	3719	52500	3
11	3889	55000	3
11	3889	55000	3
11	3891	55000	3
11	3891	55000	3
11	3891	55000	3
11	4061	57500	3
11	4061	57500	3
11	4061	57500	3
11	4227	60000	3
11	4227	60000	3
11	4229	60000	3
11	4229	60000	3
11	4231	60000	3
11	4231	60000	3
11	4231	60000	3
11	4237	60000	3
11	4237	60000	3
11	4252	60000	3
11	4252	60000	3
11	4253	60000	3
11	4253	60000	3
11	4427	62500	3
11	4427	62500	3
11	4427	62500	3
11	4597	65000	3
11	4597	65000	3
11	4599	65000	3
11	4599	65000	3
11	4599	65000	3
11	4765	67500	3
11	4765	67500	3
11	4765	67500	3
11	4935	70000	3
11	4935	70000	3
11	4937	70000	3
11	4937	70000	3
11	4939	70000	3
11	4939	70000	3
11	4939	70000	3
11	4945	70000	3
11	4945	70000	3
11	4960	70000	3
11	4960	70000	3
11	4961	70000	3
11	4961	70000	3
11	5135	72500	3
11	5135	72500	3
11	5135	72500	3
11	5301	75000	3
11	5301	75000	3
11	5303	75000	3
11	5303	75000	3
11	5303	75000	3
11	5473	77500	3
11	5473	77500	3
11	5473	77500	3
11	5643	80000	3
11	5643	80000	3
11	5645	80000	3
11	5645	80000	3
11	5647	80000	3
11	5647	80000	3
11	5647	80000	3
11	5653	80000	3
11	5653	80000	3
11	5668	80000	3
11	5668	80000	3
11	5669	80000	3
11	5669	80000	3
11	5839	82500	3
11	5839	82500	3
11	5839	82500	3
11	6009	85000	3
11	6009	85000	3
11	6011	85000	3
11	6011	85000	3
11	6011	85000	3
11	6181	87500	3
11	6181	87500	3
11	6181	87500	3
11	6347	90000	3
11	6347	90000	3
11	6349	90000	3
11	6349	90000	3
11	6351	90000	3
11	6351	90000	3
11	6351	90000	3
11	6357	90000	3
11	6357	90000	3
11	6372	90000	3
11	6372	90000	3
11	6373	90000	3
11	6373	90000	3
11	6547	92500	3
11	6547	92500	3
11	6547	92500	3
11	6717	95000	3
11	6717	95000	3
11	6719	95000	3
11	6719	95000	3
11	6719	95000	3
11	6885	97500	3
11	6885	97500	3
11	6885	97500	3
11	7055	100000	3
11	7055	100000	3
11	7057	100000	3
11	7057	100000	3
11	7059	100000	3
11	7059	100000	3
11	7059	100000	3
11	7065	100000	3
11	7065	100000	3
11	7080	100000	3
11	7080	100000	3
11	7081	100000	3
11	7081	100000	3
11	7255	102500	3
11	7255	102500	3
11	7255	102500	3
11	7421	105000	3
11	7421	105000	3
11	7423	105000	3
11	7423	105000	3
11	7423	105000	3
11	7593	107500	3
11	7593	107500	3
11	7593	107500	3
11	7763	110000	3
11	7763	110000	3
11	7765	110000	3
11	7765	110000	3
11	7767	110000	3
11	7767	110000	3
11	7767	110000	3
11	7773	110000	3
11	7773	110000	3
11	7788	110000	3
11	7788	110000	3
11	7789	110000	3
11	7789	110000	3
11	7959	112500	3
11	7959	112500	3
11	7959	112500	3
11	8129	115000	3
11	8129	115000	3
11	8131	115000	3
11	8131	115000	3
11	8131	115000	3
11	8301	117500	3
11	8301	117500	3
11	8301	117500	3
11	8467	120000	3
11	8467	120000	3
11	8469	120000	3
11	8469	120000	3
11	8471	120000	3
11	8471	120000	3
11	8471	120000	3
11	8477	120000	3
11	8477	120000	3
11	8492	120000	3
11	8492	120000	3
11	8493	120000	3
11	8493	120000	3
11	8667	122500	3
11	8667	122500	3
11	8667	122500	3
11	8837	125000	3
11	8837	125000	3
11	8839	125000	3